<?xml version="1.0" encoding="UTF-8"?>

<!-- generated on 2026-03-04T12:11:14.610361+08:00 by Eclipse SUMO GUI 1.25.0
<sumoConfiguration xmlns:xsi="http://www.w3.org/2001/XMLSchema-instance" xsi:noNamespaceSchemaLocation="http://sumo.dlr.de/xsd/sumoConfiguration.xsd">

    <input>
        <net-file value="D:\School\Eclipse\Sumo\tools\2026-03-04-02-04-58 - 副本\osm.net.xml.gz"/>
        <route-files value="D:\School\Eclipse\Sumo\tools\2026-03-04-02-04-58 - 副本\osm.passenger.trips.xml"/>
        <additional-files value="D:\School\Eclipse\Sumo\tools\2026-03-04-02-04-58 - 副本\osm.poly.xml.gz,D:\School\Eclipse\Sumo\tools\2026-03-04-02-04-58 - 副本\output.add.xml"/>
    </input>

    <output>
        <tripinfo-output value="D:\School\Eclipse\Sumo\tools\2026-03-04-02-04-58 - 副本\tripinfos.xml"/>
        <statistic-output value="D:\School\Eclipse\Sumo\tools\2026-03-04-02-04-58 - 副本\stats.xml"/>
    </output>

    <processing>
        <ignore-route-errors value="true"/>
        <random-depart-offset value="10"/>
        <tls.actuated.jam-threshold value="30"/>
    </processing>

    <routing>
        <device.rerouting.adaptation-steps value="18"/>
        <device.rerouting.adaptation-interval value="10"/>
    </routing>

    <report>
        <verbose value="true"/>
        <duration-log.statistics value="true"/>
        <no-step-log value="true"/>
    </report>

    <random_number>
        <random value="true"/>
    </random_number>

    <gui_only>
        <gui-settings-file value="D:\School\Eclipse\Sumo\tools\2026-03-04-02-04-58 - 副本\osm.view.xml"/>
    </gui_only>

</sumoConfiguration>
-->

<meandata xmlns:xsi="http://www.w3.org/2001/XMLSchema-instance" xsi:noNamespaceSchemaLocation="http://sumo.dlr.de/xsd/meandata_file.xsd">
    <interval begin="0.00" end="738.00" id="wizard_example">
        <edge id="-1261910085" sampledSeconds="1211.83" traveltime="17.04" overlapTraveltime="17.35" density="6.33" overlapDensity="6.44" laneDensity="2.11" occupancy="1.05" waitingTime="0.00" timeLoss="131.24" speed="14.99" speedRelative="0.90" departed="8" arrived="3" entered="63" left="64" laneChangedFrom="35" laneChangedTo="35" flow="341.65"/>
        <edge id="-1261910085.272" sampledSeconds="1194.96" traveltime="15.82" overlapTraveltime="16.83" density="19.63" overlapDensity="20.84" laneDensity="3.93" occupancy="2.01" waitingTime="612.00" timeLoss="837.18" speed="4.91" speedRelative="0.29" departed="9" arrived="8" entered="64" left="62" laneChangedFrom="14" laneChangedTo="14" flow="347.32"/>
        <edge id="-1261910123" sampledSeconds="3829.68" traveltime="69.04" overlapTraveltime="71.44" density="13.07" overlapDensity="13.51" laneDensity="6.54" occupancy="3.35" waitingTime="2238.00" timeLoss="2903.89" speed="5.45" speedRelative="0.25" departed="5" arrived="1" entered="50" left="47" laneChangedFrom="34" laneChangedTo="34" flow="256.42"/>
        <edge id="-1261910123.395" sampledSeconds="1691.49" traveltime="35.39" overlapTraveltime="36.63" density="152.29" overlapDensity="156.24" laneDensity="50.76" occupancy="25.41" waitingTime="1456.00" timeLoss="1636.34" speed="0.54" speedRelative="0.02" departed="2" arrived="6" entered="46" left="39" laneChangedFrom="4" laneChangedTo="4" flow="294.36"/>
        <edge id="-1261910124" sampledSeconds="1903.10" traveltime="33.61" overlapTraveltime="35.04" density="9.14" overlapDensity="9.52" laneDensity="2.28" occupancy="1.16" waitingTime="720.00" timeLoss="996.30" speed="7.87" speedRelative="0.47" departed="56" arrived="0" entered="0" left="54" laneChangedFrom="18" laneChangedTo="18" flow="258.95"/>
        <edge id="-1281579932" sampledSeconds="1090.44" traveltime="14.71" overlapTraveltime="16.49" density="6.07" overlapDensity="6.79" laneDensity="3.04" occupancy="1.59" waitingTime="197.00" timeLoss="440.02" speed="13.50" speedRelative="0.61" departed="6" arrived="3" entered="62" left="57" laneChangedFrom="27" laneChangedTo="27" flow="295.22"/>
        <edge id="-1281579932.229" sampledSeconds="3440.97" traveltime="60.97" overlapTraveltime="62.45" density="84.63" overlapDensity="85.80" laneDensity="28.21" occupancy="13.82" waitingTime="2862.00" timeLoss="3286.86" speed="0.95" speedRelative="0.04" departed="4" arrived="5" entered="56" left="47" laneChangedFrom="5" laneChangedTo="5" flow="289.51"/>
        <edge id="-1282213036#1" sampledSeconds="304.10" traveltime="8.88" overlapTraveltime="9.91" density="31.83" overlapDensity="35.68" laneDensity="31.83" occupancy="15.83" waitingTime="198.00" timeLoss="259.66" speed="1.67" speedRelative="0.10" departed="1" arrived="0" entered="30" left="31" laneChangedFrom="0" laneChangedTo="0" flow="191.40"/>
        <edge id="-1282213042" sampledSeconds="393.39" traveltime="24.38" overlapTraveltime="25.34" density="3.12" overlapDensity="3.23" laneDensity="3.12" occupancy="1.58" waitingTime="197.00" timeLoss="277.51" speed="6.71" speedRelative="0.30" departed="11" arrived="0" entered="5" left="14" laneChangedFrom="0" laneChangedTo="0" flow="75.31"/>
        <edge id="-1282401628" sampledSeconds="2050.15" traveltime="42.99" overlapTraveltime="43.78" density="8.58" overlapDensity="8.73" laneDensity="8.58" occupancy="4.30" waitingTime="833.00" timeLoss="1350.87" speed="7.38" speedRelative="0.33" departed="4" arrived="2" entered="45" left="43" laneChangedFrom="0" laneChangedTo="0" flow="228.01"/>
        <edge id="-208463883" sampledSeconds="1690.22" traveltime="36.44" overlapTraveltime="36.96" density="4.80" overlapDensity="4.87" laneDensity="1.60" occupancy="0.80" waitingTime="205.00" timeLoss="380.42" speed="12.86" speedRelative="0.77" departed="4" arrived="4" entered="43" left="40" laneChangedFrom="35" laneChangedTo="35" flow="222.39"/>
        <edge id="-208463886" sampledSeconds="1621.24" traveltime="25.30" overlapTraveltime="27.04" density="5.10" overlapDensity="5.44" laneDensity="5.10" occupancy="2.57" waitingTime="181.00" timeLoss="507.98" speed="15.11" speedRelative="0.68" departed="2" arrived="1" entered="62" left="57" laneChangedFrom="0" laneChangedTo="0" flow="277.21"/>
        <edge id="-208463886.421" sampledSeconds="1229.95" traveltime="19.07" overlapTraveltime="20.05" density="61.00" overlapDensity="63.66" laneDensity="30.50" occupancy="14.93" waitingTime="872.00" timeLoss="1113.12" speed="1.56" speedRelative="0.07" departed="6" arrived="4" entered="57" left="58" laneChangedFrom="0" laneChangedTo="0" flow="341.54"/>
        <edge id="-348676457" sampledSeconds="250.06" traveltime="11.76" overlapTraveltime="12.13" density="1.52" overlapDensity="1.56" laneDensity="0.76" occupancy="0.38" waitingTime="0.00" timeLoss="42.94" speed="18.38" speedRelative="0.83" departed="0" arrived="18" entered="21" left="2" laneChangedFrom="0" laneChangedTo="0" flow="100.28"/>
        <edge id="-491852284" sampledSeconds="170.81" traveltime="6.53" overlapTraveltime="6.92" density="3.01" overlapDensity="3.20" laneDensity="1.51" occupancy="0.75" waitingTime="0.00" timeLoss="29.76" speed="11.18" speedRelative="0.81" departed="5" arrived="2" entered="20" left="23" laneChangedFrom="0" laneChangedTo="0" flow="121.29"/>
        <edge id="-491852285" sampledSeconds="421.70" traveltime="14.26" overlapTraveltime="14.64" density="3.16" overlapDensity="3.24" laneDensity="1.58" occupancy="0.79" waitingTime="0.00" timeLoss="36.23" speed="12.39" speedRelative="0.89" departed="6" arrived="3" entered="23" left="26" laneChangedFrom="1" laneChangedTo="1" flow="140.80"/>
        <edge id="-491853013" sampledSeconds="606.59" traveltime="7.83" overlapTraveltime="8.59" density="19.19" overlapDensity="21.06" laneDensity="9.60" occupancy="4.95" waitingTime="273.00" timeLoss="465.04" speed="5.13" speedRelative="0.23" departed="3" arrived="3" entered="68" left="68" laneChangedFrom="9" laneChangedTo="9" flow="354.26"/>
        <edge id="-491853013.43" sampledSeconds="4707.95" traveltime="63.83" overlapTraveltime="65.12" density="169.20" overlapDensity="171.58" laneDensity="56.40" occupancy="28.25" waitingTime="4023.00" timeLoss="4533.34" speed="0.65" speedRelative="0.03" departed="9" arrived="5" entered="67" left="66" laneChangedFrom="10" laneChangedTo="10" flow="394.55"/>
        <edge id="-491853358" sampledSeconds="917.22" traveltime="12.27" overlapTraveltime="12.58" density="4.91" overlapDensity="5.03" laneDensity="2.45" occupancy="1.23" waitingTime="0.00" timeLoss="82.64" speed="20.06" speedRelative="0.90" departed="2" arrived="5" entered="71" left="68" laneChangedFrom="13" laneChangedTo="13" flow="354.33"/>
        <edge id="-491855300" sampledSeconds="488.49" traveltime="5.66" overlapTraveltime="5.92" density="8.01" overlapDensity="8.36" laneDensity="4.00" occupancy="1.96" waitingTime="0.00" timeLoss="173.88" speed="14.21" speedRelative="0.64" departed="7" arrived="11" entered="77" left="71" laneChangedFrom="10" laneChangedTo="10" flow="409.55"/>
        <edge id="-491882138" sampledSeconds="704.18" traveltime="20.51" overlapTraveltime="21.71" density="10.98" overlapDensity="11.59" laneDensity="3.66" occupancy="1.87" waitingTime="346.00" timeLoss="494.81" speed="4.02" speedRelative="0.29" departed="8" arrived="7" entered="25" left="26" laneChangedFrom="9" laneChangedTo="9" flow="158.86"/>
        <edge id="-831076606" sampledSeconds="1051.21" traveltime="41.30" overlapTraveltime="42.55" density="3.71" overlapDensity="3.83" laneDensity="1.86" occupancy="0.94" waitingTime="483.00" timeLoss="643.48" speed="8.87" speedRelative="0.40" departed="22" arrived="0" entered="3" left="25" laneChangedFrom="12" laneChangedTo="12" flow="118.49"/>
        <edge id="-835709649" sampledSeconds="280.03" traveltime="7.96" overlapTraveltime="8.19" density="2.91" overlapDensity="3.00" laneDensity="1.45" occupancy="0.71" waitingTime="0.00" timeLoss="76.02" speed="16.07" speedRelative="0.72" departed="21" arrived="0" entered="14" left="35" laneChangedFrom="5" laneChangedTo="5" flow="168.24"/>
        <edge id="-835709649.130" sampledSeconds="1300.96" traveltime="29.50" overlapTraveltime="30.54" density="17.31" overlapDensity="17.80" laneDensity="4.33" occupancy="2.19" waitingTime="860.00" timeLoss="1092.78" speed="3.41" speedRelative="0.15" departed="9" arrived="6" entered="35" left="33" laneChangedFrom="8" laneChangedTo="8" flow="212.31"/>
        <edge id="1261910085" sampledSeconds="1240.92" traveltime="18.80" overlapTraveltime="19.12" density="5.82" overlapDensity="5.91" laneDensity="1.94" occupancy="0.97" waitingTime="0.00" timeLoss="125.40" speed="15.13" speedRelative="0.91" departed="4" arrived="8" entered="64" left="55" laneChangedFrom="28" laneChangedTo="28" flow="317.03"/>
        <edge id="1261910085.305" sampledSeconds="1631.62" traveltime="24.67" overlapTraveltime="25.81" density="43.67" overlapDensity="45.58" laneDensity="10.92" occupancy="5.53" waitingTime="1140.00" timeLoss="1411.37" speed="2.07" speedRelative="0.12" departed="10" arrived="7" entered="55" left="57" laneChangedFrom="2" laneChangedTo="2" flow="325.98"/>
        <edge id="1261910123" sampledSeconds="3057.22" traveltime="45.80" overlapTraveltime="46.70" density="9.99" overlapDensity="10.18" laneDensity="4.99" occupancy="2.51" waitingTime="1253.00" timeLoss="1837.72" speed="8.82" speedRelative="0.40" departed="7" arrived="4" entered="64" left="60" laneChangedFrom="43" laneChangedTo="43" flow="317.12"/>
        <edge id="1261910124" sampledSeconds="616.55" traveltime="18.18" overlapTraveltime="18.50" density="3.05" overlapDensity="3.09" laneDensity="1.02" occupancy="0.50" waitingTime="0.00" timeLoss="51.90" speed="14.89" speedRelative="0.89" departed="0" arrived="32" entered="34" left="0" laneChangedFrom="3" laneChangedTo="3" flow="163.23"/>
        <edge id="1281579928" sampledSeconds="885.49" traveltime="26.81" overlapTraveltime="27.74" density="3.61" overlapDensity="3.74" laneDensity="1.81" occupancy="0.91" waitingTime="221.00" timeLoss="425.14" speed="11.75" speedRelative="0.53" departed="5" arrived="2" entered="27" left="30" laneChangedFrom="11" laneChangedTo="11" flow="152.82"/>
        <edge id="1282213019" sampledSeconds="1279.39" traveltime="21.92" overlapTraveltime="24.85" density="4.21" overlapDensity="4.76" laneDensity="1.40" occupancy="0.76" waitingTime="283.00" timeLoss="591.37" speed="14.85" speedRelative="0.53" departed="8" arrived="4" entered="45" left="46" laneChangedFrom="16" laneChangedTo="16" flow="224.79"/>
        <edge id="1282213019.385" sampledSeconds="4915.93" traveltime="105.04" overlapTraveltime="106.52" density="95.22" overlapDensity="95.87" laneDensity="23.80" occupancy="11.53" waitingTime="4210.00" timeLoss="4784.78" speed="0.70" speedRelative="0.03" departed="7" arrived="9" entered="45" left="33" laneChangedFrom="9" laneChangedTo="9" flow="239.68"/>
        <edge id="1282213034" sampledSeconds="419.93" traveltime="14.20" overlapTraveltime="15.00" density="19.56" overlapDensity="20.65" laneDensity="6.52" occupancy="3.32" waitingTime="290.00" timeLoss="386.36" speed="2.17" speedRelative="0.08" departed="0" arrived="3" entered="28" left="25" laneChangedFrom="5" laneChangedTo="5" flow="152.79"/>
        <edge id="1282213036#1" sampledSeconds="60.10" traveltime="1.98" overlapTraveltime="2.58" density="5.43" overlapDensity="7.05" laneDensity="1.81" occupancy="0.87" waitingTime="0.00" timeLoss="36.81" speed="6.42" speedRelative="0.39" departed="6" arrived="4" entered="20" left="22" laneChangedFrom="1" laneChangedTo="1" flow="125.59"/>
        <edge id="1282213037" sampledSeconds="57.03" traveltime="4.93" overlapTraveltime="5.70" density="1.32" overlapDensity="1.52" laneDensity="0.66" occupancy="0.35" waitingTime="3.00" timeLoss="33.54" speed="9.77" speedRelative="0.44" departed="0" arrived="0" entered="10" left="10" laneChangedFrom="0" laneChangedTo="0" flow="46.32"/>
        <edge id="1282213038" sampledSeconds="178.49" traveltime="3.73" overlapTraveltime="4.46" density="6.51" overlapDensity="7.78" laneDensity="6.51" occupancy="3.42" waitingTime="0.00" timeLoss="104.77" speed="8.08" speedRelative="0.36" departed="0" arrived="0" entered="40" left="40" laneChangedFrom="0" laneChangedTo="0" flow="189.56"/>
        <edge id="1282213039#0" sampledSeconds="65.94" traveltime="2.37" overlapTraveltime="2.65" density="2.23" overlapDensity="2.48" laneDensity="0.74" occupancy="0.36" waitingTime="0.00" timeLoss="28.03" speed="15.48" speedRelative="0.56" departed="0" arrived="8" entered="25" left="17" laneChangedFrom="0" laneChangedTo="0" flow="124.27"/>
        <edge id="1282213039#1" sampledSeconds="112.91" traveltime="4.81" overlapTraveltime="5.00" density="1.19" overlapDensity="1.23" laneDensity="0.60" occupancy="0.30" waitingTime="0.00" timeLoss="8.77" speed="25.87" speedRelative="0.93" departed="0" arrived="22" entered="23" left="0" laneChangedFrom="1" laneChangedTo="1" flow="111.00"/>
        <edge id="1282213039#1-AddedOnRampEdge" sampledSeconds="137.10" traveltime="4.87" overlapTraveltime="5.08" density="1.94" overlapDensity="2.02" laneDensity="0.65" occupancy="0.32" waitingTime="0.00" timeLoss="43.38" speed="19.10" speedRelative="0.69" departed="0" arrived="4" entered="27" left="23" laneChangedFrom="0" laneChangedTo="0" flow="133.05"/>
        <edge id="1282213040" sampledSeconds="1033.65" traveltime="13.85" overlapTraveltime="14.04" density="4.85" overlapDensity="4.92" laneDensity="1.62" occupancy="0.80" waitingTime="0.00" timeLoss="257.51" speed="20.64" speedRelative="0.74" departed="4" arrived="8" entered="70" left="63" laneChangedFrom="20" laneChangedTo="20" flow="360.65"/>
        <edge id="1282213040-AddedOffRampEdge" sampledSeconds="372.73" traveltime="4.81" overlapTraveltime="5.05" density="5.01" overlapDensity="5.26" laneDensity="1.25" occupancy="0.63" waitingTime="0.00" timeLoss="99.01" speed="19.99" speedRelative="0.72" departed="13" arrived="6" entered="63" left="68" laneChangedFrom="0" laneChangedTo="0" flow="360.14"/>
        <edge id="1282213042" sampledSeconds="216.64" traveltime="9.34" overlapTraveltime="9.87" density="1.69" overlapDensity="1.78" laneDensity="1.69" occupancy="0.85" waitingTime="0.00" timeLoss="47.00" speed="17.23" speedRelative="0.78" departed="0" arrived="17" entered="22" left="5" laneChangedFrom="0" laneChangedTo="0" flow="104.70"/>
        <edge id="1282213043" sampledSeconds="1486.11" traveltime="26.72" overlapTraveltime="27.63" density="6.97" overlapDensity="7.20" laneDensity="3.48" occupancy="1.76" waitingTime="421.00" timeLoss="808.91" speed="10.31" speedRelative="0.46" departed="5" arrived="3" entered="51" left="48" laneChangedFrom="33" laneChangedTo="33" flow="258.55"/>
        <edge id="1282401628" sampledSeconds="1684.15" traveltime="32.29" overlapTraveltime="33.08" density="7.00" overlapDensity="7.17" laneDensity="7.00" occupancy="3.52" waitingTime="605.00" timeLoss="937.75" speed="9.77" speedRelative="0.44" departed="4" arrived="3" entered="47" left="47" laneChangedFrom="0" laneChangedTo="0" flow="246.34"/>
        <edge id="208463842" sampledSeconds="357.49" traveltime="16.72" overlapTraveltime="17.08" density="2.11" overlapDensity="2.15" laneDensity="1.06" occupancy="0.53" waitingTime="0.00" timeLoss="25.21" speed="13.48" speedRelative="0.97" departed="0" arrived="21" entered="21" left="0" laneChangedFrom="2" laneChangedTo="2" flow="102.50"/>
        <edge id="348676457" sampledSeconds="922.00" traveltime="27.64" overlapTraveltime="28.55" density="5.55" overlapDensity="5.74" laneDensity="1.85" occupancy="0.94" waitingTime="448.00" timeLoss="593.44" speed="7.80" speedRelative="0.35" departed="31" arrived="0" entered="2" left="33" laneChangedFrom="7" laneChangedTo="7" flow="155.87"/>
        <edge id="491847189" sampledSeconds="611.50" traveltime="20.11" overlapTraveltime="20.95" density="4.16" overlapDensity="4.34" laneDensity="2.08" occupancy="1.06" waitingTime="260.00" timeLoss="347.89" speed="9.36" speedRelative="0.42" departed="30" arrived="0" entered="0" left="29" laneChangedFrom="0" laneChangedTo="0" flow="140.26"/>
        <edge id="491849325" sampledSeconds="755.21" traveltime="13.91" overlapTraveltime="14.80" density="10.88" overlapDensity="11.61" laneDensity="2.72" occupancy="1.41" waitingTime="367.00" timeLoss="576.09" speed="6.29" speedRelative="0.23" departed="55" arrived="0" entered="0" left="54" laneChangedFrom="14" laneChangedTo="14" flow="246.58"/>
        <edge id="491849842" sampledSeconds="1233.00" traveltime="27.63" overlapTraveltime="28.32" density="4.96" overlapDensity="5.09" laneDensity="2.48" occupancy="1.25" waitingTime="45.00" timeLoss="192.52" speed="11.77" speedRelative="0.85" departed="8" arrived="5" entered="37" left="38" laneChangedFrom="17" laneChangedTo="17" flow="210.41"/>
        <edge id="491850744" sampledSeconds="1812.02" traveltime="52.70" overlapTraveltime="53.69" density="7.28" overlapDensity="7.41" laneDensity="3.64" occupancy="1.83" waitingTime="768.00" timeLoss="995.51" speed="6.26" speedRelative="0.45" departed="6" arrived="7" entered="28" left="26" laneChangedFrom="5" laneChangedTo="5" flow="164.20"/>
        <edge id="491852284" sampledSeconds="1068.20" traveltime="21.92" overlapTraveltime="24.63" density="17.87" overlapDensity="19.98" laneDensity="5.96" occupancy="3.08" waitingTime="621.00" timeLoss="823.51" speed="3.14" speedRelative="0.23" departed="5" arrived="8" entered="39" left="35" laneChangedFrom="8" laneChangedTo="8" flow="202.35"/>
        <edge id="491852285" sampledSeconds="535.61" traveltime="13.43" overlapTraveltime="13.80" density="4.04" overlapDensity="4.15" laneDensity="2.02" occupancy="1.01" waitingTime="0.00" timeLoss="46.16" speed="13.03" speedRelative="0.94" departed="7" arrived="0" entered="32" left="39" laneChangedFrom="7" laneChangedTo="7" flow="189.46"/>
        <edge id="491852723" sampledSeconds="246.63" traveltime="6.94" overlapTraveltime="7.30" density="3.87" overlapDensity="4.07" laneDensity="1.93" occupancy="0.96" waitingTime="0.00" timeLoss="40.99" speed="11.91" speedRelative="0.86" departed="4" arrived="2" entered="30" left="32" laneChangedFrom="5" laneChangedTo="5" flow="165.89"/>
        <edge id="491853013" sampledSeconds="367.66" traveltime="6.15" overlapTraveltime="6.42" density="5.69" overlapDensity="5.92" laneDensity="2.84" occupancy="1.38" waitingTime="0.00" timeLoss="139.46" speed="13.90" speedRelative="0.63" departed="2" arrived="3" entered="56" left="54" laneChangedFrom="9" laneChangedTo="9" flow="284.54"/>
        <edge id="491853358" sampledSeconds="699.47" traveltime="12.06" overlapTraveltime="12.30" density="3.76" overlapDensity="3.83" laneDensity="1.88" occupancy="0.94" waitingTime="0.00" timeLoss="58.18" speed="20.52" speedRelative="0.92" departed="4" arrived="6" entered="54" left="49" laneChangedFrom="12" laneChangedTo="12" flow="277.81"/>
        <edge id="491855300" sampledSeconds="2470.78" traveltime="39.54" overlapTraveltime="40.61" density="41.31" overlapDensity="42.29" laneDensity="10.33" occupancy="5.22" waitingTime="1846.00" timeLoss="2219.27" speed="2.07" speedRelative="0.09" departed="13" arrived="8" entered="49" left="52" laneChangedFrom="6" laneChangedTo="6" flow="308.21"/>
        <edge id="491882468" sampledSeconds="649.34" traveltime="12.90" overlapTraveltime="13.56" density="14.64" overlapDensity="15.36" laneDensity="3.66" occupancy="1.87" waitingTime="347.00" timeLoss="529.69" speed="4.60" speedRelative="0.17" departed="11" arrived="5" entered="38" left="43" laneChangedFrom="0" laneChangedTo="0" flow="242.20"/>
        <edge id="491882469" sampledSeconds="112.65" traveltime="4.32" overlapTraveltime="4.53" density="1.63" overlapDensity="1.70" laneDensity="0.54" occupancy="0.27" waitingTime="0.00" timeLoss="25.51" speed="20.94" speedRelative="0.75" departed="0" arrived="25" entered="25" left="0" laneChangedFrom="0" laneChangedTo="0" flow="122.77"/>
        <edge id="828032853#1" sampledSeconds="2044.77" traveltime="27.69" overlapTraveltime="28.11" density="6.51" overlapDensity="6.61" laneDensity="2.17" occupancy="1.09" waitingTime="24.00" timeLoss="202.69" speed="15.09" speedRelative="0.91" departed="11" arrived="3" entered="62" left="69" laneChangedFrom="24" laneChangedTo="24" flow="353.84"/>
        <edge id="828032853#1.423" sampledSeconds="1629.51" traveltime="20.07" overlapTraveltime="20.91" density="49.25" overlapDensity="51.38" laneDensity="12.31" occupancy="6.22" waitingTime="1018.00" timeLoss="1389.81" speed="2.29" speedRelative="0.14" departed="10" arrived="4" entered="69" left="75" laneChangedFrom="2" laneChangedTo="2" flow="406.81"/>
        <edge id="830596755#1" sampledSeconds="1380.09" traveltime="20.30" overlapTraveltime="20.52" density="4.03" overlapDensity="4.08" laneDensity="1.34" occupancy="0.67" waitingTime="0.00" timeLoss="246.38" speed="22.60" speedRelative="0.81" departed="8" arrived="5" entered="61" left="62" laneChangedFrom="16" laneChangedTo="16" flow="328.04"/>
        <edge id="830596755#1.468" sampledSeconds="933.29" traveltime="12.82" overlapTraveltime="13.67" density="24.69" overlapDensity="26.32" laneDensity="6.17" occupancy="3.17" waitingTime="537.00" timeLoss="778.70" speed="3.88" speedRelative="0.14" departed="7" arrived="5" entered="62" left="64" laneChangedFrom="4" laneChangedTo="4" flow="344.88"/>
        <edge id="831076606" sampledSeconds="517.70" traveltime="18.37" overlapTraveltime="18.73" density="1.85" overlapDensity="1.88" laneDensity="0.93" occupancy="0.46" waitingTime="0.00" timeLoss="59.75" speed="20.14" speedRelative="0.91" departed="0" arrived="24" entered="28" left="3" laneChangedFrom="2" laneChangedTo="2" flow="134.22"/>
        <edge id="831086029" sampledSeconds="80.78" traveltime="4.75" overlapTraveltime="4.93" density="0.79" overlapDensity="0.82" laneDensity="0.39" occupancy="0.20" waitingTime="0.00" timeLoss="1.93" speed="28.04" speedRelative="1.01" departed="17" arrived="0" entered="0" left="17" laneChangedFrom="0" laneChangedTo="0" flow="79.74"/>
        <edge id="831086029.137" sampledSeconds="80.43" traveltime="3.18" overlapTraveltime="3.45" density="2.08" overlapDensity="2.26" laneDensity="0.69" occupancy="0.35" waitingTime="0.00" timeLoss="36.57" speed="15.42" speedRelative="0.56" departed="7" arrived="0" entered="17" left="24" laneChangedFrom="0" laneChangedTo="0" flow="115.66"/>
        <edge id="831086029.193" sampledSeconds="944.98" traveltime="26.17" overlapTraveltime="27.00" density="15.62" overlapDensity="16.06" laneDensity="3.91" occupancy="1.98" waitingTime="626.00" timeLoss="834.84" speed="3.14" speedRelative="0.11" departed="12" arrived="0" entered="24" left="34" laneChangedFrom="3" laneChangedTo="3" flow="176.48"/>
        <edge id="831086031" sampledSeconds="986.49" traveltime="20.47" overlapTraveltime="20.67" density="2.91" overlapDensity="2.94" laneDensity="0.97" occupancy="0.48" waitingTime="0.00" timeLoss="182.20" speed="22.27" speedRelative="0.80" departed="6" arrived="9" entered="43" left="38" laneChangedFrom="6" laneChangedTo="6" flow="233.02"/>
        <edge id="835709649" sampledSeconds="523.92" traveltime="13.66" overlapTraveltime="14.46" density="2.88" overlapDensity="3.04" laneDensity="1.44" occupancy="0.73" waitingTime="0.00" timeLoss="126.56" speed="16.51" speedRelative="0.74" departed="0" arrived="21" entered="37" left="14" laneChangedFrom="5" laneChangedTo="5" flow="171.01"/>
        <edge id="835723848" sampledSeconds="1557.18" traveltime="38.25" overlapTraveltime="39.42" density="6.41" overlapDensity="6.60" laneDensity="3.20" occupancy="1.62" waitingTime="429.00" timeLoss="630.25" speed="8.24" speedRelative="0.59" departed="4" arrived="3" entered="36" left="36" laneChangedFrom="7" laneChangedTo="7" flow="190.04"/>
        <edge id="835726113" sampledSeconds="1631.54" traveltime="35.47" overlapTraveltime="36.30" density="4.94" overlapDensity="5.05" laneDensity="4.94" occupancy="2.48" waitingTime="385.00" timeLoss="719.85" speed="12.19" speedRelative="0.55" departed="3" arrived="1" entered="42" left="43" laneChangedFrom="0" laneChangedTo="0" flow="216.82"/>
    </interval>
</meandata>
