<?xml version="1.0" encoding="UTF-8"?>

<!-- generated on 2026-04-18T18:33:15.533703+08:00 by Eclipse SUMO GUI 1.25.0
<sumoConfiguration xmlns:xsi="http://www.w3.org/2001/XMLSchema-instance" xsi:noNamespaceSchemaLocation="http://sumo.dlr.de/xsd/sumoConfiguration.xsd">

    <input>
        <net-file value="D:\学校\毕设\Project\Model\nets\osm.net.xml.gz"/>
        <route-files value="D:\学校\毕设\Project\Model\nets\osm.passenger.trips.xml"/>
    </input>

    <output>
        <tripinfo-output value="D:\学校\毕设\Project\Model\nets\tripinfos.xml"/>
        <statistic-output value="D:\学校\毕设\Project\Model\nets\stats.xml"/>
    </output>

    <processing>
        <ignore-route-errors value="true"/>
        <random-depart-offset value="10"/>
        <tls.actuated.jam-threshold value="30"/>
    </processing>

    <routing>
        <device.rerouting.adaptation-steps value="18"/>
        <device.rerouting.adaptation-interval value="10"/>
    </routing>

    <report>
        <verbose value="true"/>
        <duration-log.statistics value="true"/>
        <no-step-log value="true"/>
    </report>

    <random_number>
        <random value="true"/>
    </random_number>

    <gui_only>
        <gui-settings-file value="D:\学校\毕设\Project\Model\nets\osm.view.xml"/>
    </gui_only>

</sumoConfiguration>
-->

<tripinfos xmlns:xsi="http://www.w3.org/2001/XMLSchema-instance" xsi:noNamespaceSchemaLocation="http://sumo.dlr.de/xsd/tripinfo_file.xsd">
    <tripinfo id="veh7" depart="10.00" departLane="491853358_0" departPos="5.10" departSpeed="0.00" departDelay="0.40" arrival="30.00" arrivalLane="491855300_0" arrivalPos="79.17" arrivalSpeed="24.11" duration="20.00" routeLength="330.51" waitingTime="0.00" waitingCount="0" stopTime="0.00" timeLoss="6.35" rerouteNo="0" devices="tripinfo_veh7 routing_veh7" vType="veh_passenger" speedFactor="1.13" vaporized=""/>
    <tripinfo id="veh5" depart="12.00" departLane="-1261910085.272_1" departPos="5.10" departSpeed="0.00" departDelay="0.00" arrival="58.00" arrivalLane="-491853013.43_1" arrivalPos="37.18" arrivalSpeed="18.31" duration="46.00" routeLength="529.85" waitingTime="6.00" waitingCount="1" stopTime="0.00" timeLoss="18.16" rerouteNo="1" devices="tripinfo_veh5 routing_veh5" vType="veh_passenger" speedFactor="0.95" vaporized=""/>
    <tripinfo id="veh20" depart="19.00" departLane="491847189_0" departPos="5.10" departSpeed="18.75" departDelay="0.01" arrival="68.00" arrivalLane="1281579928_0" arrivalPos="321.02" arrivalSpeed="18.42" duration="49.00" routeLength="531.08" waitingTime="12.00" waitingCount="1" stopTime="0.00" timeLoss="20.42" rerouteNo="0" devices="tripinfo_veh20 routing_veh20" vType="veh_passenger" speedFactor="0.84" vaporized=""/>
    <tripinfo id="veh21" depart="21.00" departLane="-835709649.130_1" departPos="5.10" departSpeed="0.00" departDelay="0.21" arrival="69.00" arrivalLane="-491853358_0" arrivalPos="247.32" arrivalSpeed="23.49" duration="48.00" routeLength="464.17" waitingTime="13.00" waitingCount="1" stopTime="0.00" timeLoss="28.03" rerouteNo="1" devices="tripinfo_veh21 routing_veh21" vType="veh_passenger" speedFactor="1.07" vaporized=""/>
    <tripinfo id="veh15" depart="19.00" departLane="491882468_3" departPos="5.10" departSpeed="0.00" departDelay="0.01" arrival="71.00" arrivalLane="491849842_0" arrivalPos="328.46" arrivalSpeed="10.97" duration="52.00" routeLength="411.99" waitingTime="6.00" waitingCount="1" stopTime="0.00" timeLoss="17.42" rerouteNo="0" devices="tripinfo_veh15 routing_veh15" vType="veh_passenger" speedFactor="0.82" vaporized=""/>
    <tripinfo id="veh49" depart="45.00" departLane="830596755#1_1" departPos="5.10" departSpeed="0.00" departDelay="0.83" arrival="73.00" arrivalLane="830596755#1_1" arrivalPos="458.74" arrivalSpeed="21.16" duration="28.00" routeLength="453.64" waitingTime="0.00" waitingCount="0" stopTime="0.00" timeLoss="6.07" rerouteNo="1" devices="tripinfo_veh49 routing_veh49" vType="veh_passenger" speedFactor="0.78" vaporized=""/>
    <tripinfo id="veh24" depart="29.00" departLane="-1282213036#1_0" departPos="5.10" departSpeed="0.00" departDelay="0.82" arrival="74.00" arrivalLane="1282213019_0" arrivalPos="363.97" arrivalSpeed="28.52" duration="45.00" routeLength="409.46" waitingTime="21.00" waitingCount="1" stopTime="0.00" timeLoss="29.15" rerouteNo="0" devices="tripinfo_veh24 routing_veh24" vType="veh_passenger" speedFactor="1.04" vaporized=""/>
    <tripinfo id="veh1" depart="7.00" departLane="491849325_1" departPos="5.10" departSpeed="28.86" departDelay="0.20" arrival="77.00" arrivalLane="491853358_1" arrivalPos="247.33" arrivalSpeed="22.90" duration="70.00" routeLength="1422.73" waitingTime="0.00" waitingCount="0" stopTime="0.00" timeLoss="11.86" rerouteNo="1" devices="tripinfo_veh1 routing_veh1" vType="veh_passenger" speedFactor="1.04" vaporized=""/>
    <tripinfo id="veh22" depart="23.00" departLane="-491855300_0" departPos="5.10" departSpeed="0.00" departDelay="0.41" arrival="97.00" arrivalLane="831086031_0" arrivalPos="455.40" arrivalSpeed="27.23" duration="74.00" routeLength="1349.92" waitingTime="0.00" waitingCount="0" stopTime="0.00" timeLoss="15.71" rerouteNo="1" devices="tripinfo_veh22 routing_veh22" vType="veh_passenger" speedFactor="1.02" vaporized=""/>
    <tripinfo id="veh6" depart="6.00" departLane="-491852284_1" departPos="5.10" departSpeed="0.00" departDelay="0.20" arrival="99.00" arrivalLane="208463842_0" arrivalPos="225.17" arrivalSpeed="13.90" duration="93.00" routeLength="939.53" waitingTime="15.00" waitingCount="1" stopTime="0.00" timeLoss="26.55" rerouteNo="1" devices="tripinfo_veh6 routing_veh6" vType="veh_passenger" speedFactor="1.03" vaporized=""/>
    <tripinfo id="veh17" depart="21.00" departLane="491849325_1" departPos="5.10" departSpeed="34.86" departDelay="0.41" arrival="106.00" arrivalLane="-1261910123.395_0" arrivalPos="14.67" arrivalSpeed="17.14" duration="85.00" routeLength="1841.03" waitingTime="0.00" waitingCount="0" stopTime="0.00" timeLoss="21.85" rerouteNo="1" devices="tripinfo_veh17 routing_veh17" vType="veh_passenger" speedFactor="1.25" vaporized=""/>
    <tripinfo id="veh4" depart="14.00" departLane="-491852284_0" departPos="5.10" departSpeed="0.00" departDelay="0.80" arrival="109.00" arrivalLane="1282213040_0" arrivalPos="284.84" arrivalSpeed="26.24" duration="95.00" routeLength="1513.77" waitingTime="0.00" waitingCount="0" stopTime="0.00" timeLoss="11.60" rerouteNo="1" devices="tripinfo_veh4 routing_veh4" vType="veh_passenger" speedFactor="0.97" vaporized=""/>
    <tripinfo id="veh71" depart="66.00" departLane="1261910085.305_0" departPos="5.10" departSpeed="0.00" departDelay="0.25" arrival="111.00" arrivalLane="1261910124_0" arrivalPos="270.51" arrivalSpeed="16.70" duration="45.00" routeLength="341.36" waitingTime="15.00" waitingCount="1" stopTime="0.00" timeLoss="24.74" rerouteNo="0" devices="tripinfo_veh71 routing_veh71" vType="veh_passenger" speedFactor="1.05" vaporized=""/>
    <tripinfo id="veh76" depart="68.00" departLane="1282213036#1_0" departPos="5.10" departSpeed="0.00" departDelay="0.25" arrival="113.00" arrivalLane="-491855300_0" arrivalPos="79.17" arrivalSpeed="19.36" duration="45.00" routeLength="595.56" waitingTime="0.00" waitingCount="0" stopTime="0.00" timeLoss="9.22" rerouteNo="1" devices="tripinfo_veh76 routing_veh76" vType="veh_passenger" speedFactor="1.01" vaporized=""/>
    <tripinfo id="veh19" depart="21.00" departLane="-1261910124_3" departPos="5.10" departSpeed="16.63" departDelay="0.81" arrival="117.00" arrivalLane="-491882138_0" arrivalPos="82.30" arrivalSpeed="8.75" duration="96.00" routeLength="1396.95" waitingTime="0.00" waitingCount="0" stopTime="0.00" timeLoss="16.27" rerouteNo="1" devices="tripinfo_veh19 routing_veh19" vType="veh_passenger" speedFactor="1.00" vaporized=""/>
    <tripinfo id="veh50" depart="49.00" departLane="-831076606_0" departPos="5.10" departSpeed="21.43" departDelay="0.03" arrival="132.00" arrivalLane="-1261910123.395_1" arrivalPos="14.67" arrivalSpeed="16.27" duration="83.00" routeLength="1099.08" waitingTime="20.00" waitingCount="1" stopTime="0.00" timeLoss="31.29" rerouteNo="1" devices="tripinfo_veh50 routing_veh50" vType="veh_passenger" speedFactor="0.96" vaporized=""/>
    <tripinfo id="veh90" depart="79.00" departLane="1261910123_1" departPos="5.10" departSpeed="0.00" departDelay="0.06" arrival="133.00" arrivalLane="208463842_1" arrivalPos="225.17" arrivalSpeed="15.17" duration="54.00" routeLength="950.55" waitingTime="0.00" waitingCount="0" stopTime="0.00" timeLoss="8.31" rerouteNo="1" devices="tripinfo_veh90 routing_veh90" vType="veh_passenger" speedFactor="1.11" vaporized=""/>
    <tripinfo id="veh32" depart="35.00" departLane="1261910085.305_1" departPos="5.10" departSpeed="0.00" departDelay="0.42" arrival="135.00" arrivalLane="-491855300_1" arrivalPos="79.17" arrivalSpeed="19.32" duration="100.00" routeLength="521.03" waitingTime="47.00" waitingCount="1" stopTime="0.00" timeLoss="63.06" rerouteNo="1" devices="tripinfo_veh32 routing_veh32" vType="veh_passenger" speedFactor="0.87" vaporized=""/>
    <tripinfo id="veh9" depart="9.00" departLane="831086029.137_2" departPos="5.10" departSpeed="0.00" departDelay="0.81" arrival="136.00" arrivalLane="1261910124_0" arrivalPos="270.51" arrivalSpeed="15.73" duration="127.00" routeLength="1337.91" waitingTime="25.00" waitingCount="2" stopTime="0.00" timeLoss="47.51" rerouteNo="1" devices="tripinfo_veh9 routing_veh9" vType="veh_passenger" speedFactor="0.98" vaporized=""/>
    <tripinfo id="veh13" depart="16.00" departLane="1282213040-AddedOffRampEdge_0" departPos="5.10" departSpeed="0.00" departDelay="0.61" arrival="136.00" arrivalLane="835709649_1" arrivalPos="233.66" arrivalSpeed="25.00" duration="120.00" routeLength="911.76" waitingTime="58.00" waitingCount="1" stopTime="0.00" timeLoss="76.41" rerouteNo="1" devices="tripinfo_veh13 routing_veh13" vType="veh_passenger" speedFactor="1.13" vaporized=""/>
    <tripinfo id="veh8" depart="11.00" departLane="-835709649_1" departPos="5.10" departSpeed="23.64" departDelay="0.61" arrival="138.00" arrivalLane="-348676457_1" arrivalPos="217.87" arrivalSpeed="23.59" duration="127.00" routeLength="854.32" waitingTime="67.00" waitingCount="2" stopTime="0.00" timeLoss="83.96" rerouteNo="1" devices="tripinfo_veh8 routing_veh8" vType="veh_passenger" speedFactor="1.06" vaporized=""/>
    <tripinfo id="veh128" depart="108.00" departLane="491855300_0" departPos="5.10" departSpeed="0.00" departDelay="0.68" arrival="138.00" arrivalLane="1261910085_0" arrivalPos="284.34" arrivalSpeed="18.07" duration="30.00" routeLength="368.96" waitingTime="0.00" waitingCount="0" stopTime="0.00" timeLoss="9.55" rerouteNo="0" devices="tripinfo_veh128 routing_veh128" vType="veh_passenger" speedFactor="1.11" vaporized=""/>
    <tripinfo id="veh29" depart="32.00" departLane="-208463886.421_0" departPos="5.10" departSpeed="0.00" departDelay="0.82" arrival="142.00" arrivalLane="835709649_1" arrivalPos="233.66" arrivalSpeed="18.53" duration="110.00" routeLength="1243.04" waitingTime="13.00" waitingCount="1" stopTime="0.00" timeLoss="36.21" rerouteNo="1" devices="tripinfo_veh29 routing_veh29" vType="veh_passenger" speedFactor="0.85" vaporized=""/>
    <tripinfo id="veh45" depart="45.00" departLane="-831076606_1" departPos="5.10" departSpeed="21.44" departDelay="0.03" arrival="143.00" arrivalLane="491852284_0" arrivalPos="72.44" arrivalSpeed="12.15" duration="98.00" routeLength="1070.27" waitingTime="23.00" waitingCount="1" stopTime="0.00" timeLoss="35.90" rerouteNo="1" devices="tripinfo_veh45 routing_veh45" vType="veh_passenger" speedFactor="0.96" vaporized=""/>
    <tripinfo id="veh97" depart="80.00" departLane="835726113_0" departPos="5.10" departSpeed="0.00" departDelay="0.46" arrival="146.00" arrivalLane="835726113_0" arrivalPos="437.56" arrivalSpeed="5.81" duration="66.00" routeLength="432.46" waitingTime="28.00" waitingCount="1" stopTime="0.00" timeLoss="43.73" rerouteNo="1" devices="tripinfo_veh97 routing_veh97" vType="veh_passenger" speedFactor="0.88" vaporized=""/>
    <tripinfo id="veh3" depart="4.00" departLane="1261910123_0" departPos="5.10" departSpeed="0.00" departDelay="0.60" arrival="151.00" arrivalLane="-1261910085.272_0" arrivalPos="77.70" arrivalSpeed="17.00" duration="147.00" routeLength="1873.56" waitingTime="9.00" waitingCount="1" stopTime="0.00" timeLoss="51.52" rerouteNo="1" devices="tripinfo_veh3 routing_veh3" vType="veh_passenger" speedFactor="1.03" vaporized=""/>
    <tripinfo id="veh86" depart="74.00" departLane="-1261910124_0" departPos="5.10" departSpeed="17.15" departDelay="0.26" arrival="152.00" arrivalLane="-491853013_1" arrivalPos="39.02" arrivalSpeed="21.57" duration="78.00" routeLength="1046.57" waitingTime="5.00" waitingCount="1" stopTime="0.00" timeLoss="20.94" rerouteNo="1" devices="tripinfo_veh86 routing_veh86" vType="veh_passenger" speedFactor="1.03" vaporized=""/>
    <tripinfo id="veh95" depart="76.00" departLane="-831076606_1" departPos="5.10" departSpeed="22.32" departDelay="0.06" arrival="154.00" arrivalLane="491882469_1" arrivalPos="89.81" arrivalSpeed="21.93" duration="78.00" routeLength="1198.94" waitingTime="0.00" waitingCount="0" stopTime="0.00" timeLoss="13.13" rerouteNo="1" devices="tripinfo_veh95 routing_veh95" vType="veh_passenger" speedFactor="1.00" vaporized=""/>
    <tripinfo id="veh42" depart="43.00" departLane="1282213019.385_3" departPos="5.10" departSpeed="0.00" departDelay="0.43" arrival="155.00" arrivalLane="835709649_0" arrivalPos="233.66" arrivalSpeed="20.80" duration="112.00" routeLength="1236.83" waitingTime="32.00" waitingCount="1" stopTime="0.00" timeLoss="51.78" rerouteNo="1" devices="tripinfo_veh42 routing_veh42" vType="veh_passenger" speedFactor="0.97" vaporized=""/>
    <tripinfo id="veh54" depart="50.00" departLane="491852284_0" departPos="5.10" departSpeed="0.00" departDelay="0.84" arrival="155.00" arrivalLane="-348676457_0" arrivalPos="217.87" arrivalSpeed="23.39" duration="105.00" routeLength="1070.46" waitingTime="34.00" waitingCount="1" stopTime="0.00" timeLoss="55.39" rerouteNo="1" devices="tripinfo_veh54 routing_veh54" vType="veh_passenger" speedFactor="1.05" vaporized=""/>
    <tripinfo id="veh52" depart="48.00" departLane="-1261910124_2" departPos="5.10" departSpeed="19.33" departDelay="0.43" arrival="158.00" arrivalLane="1282213039#1_0" arrivalPos="124.37" arrivalSpeed="31.31" duration="110.00" routeLength="1441.37" waitingTime="23.00" waitingCount="1" stopTime="0.00" timeLoss="40.30" rerouteNo="1" devices="tripinfo_veh52 routing_veh52" vType="veh_passenger" speedFactor="1.16" vaporized=""/>
    <tripinfo id="veh117" depart="101.00" departLane="-1281579932_1" departPos="5.10" departSpeed="0.00" departDelay="0.48" arrival="162.00" arrivalLane="-348676457_0" arrivalPos="217.87" arrivalSpeed="21.43" duration="61.00" routeLength="950.72" waitingTime="1.00" waitingCount="1" stopTime="0.00" timeLoss="17.24" rerouteNo="1" devices="tripinfo_veh117 routing_veh117" vType="veh_passenger" speedFactor="0.99" vaporized=""/>
    <tripinfo id="veh129" depart="105.00" departLane="491852723_1" departPos="5.10" departSpeed="0.00" departDelay="0.88" arrival="162.00" arrivalLane="-208463886_0" arrivalPos="403.47" arrivalSpeed="3.52" duration="57.00" routeLength="763.08" waitingTime="3.00" waitingCount="1" stopTime="0.00" timeLoss="15.05" rerouteNo="1" devices="tripinfo_veh129 routing_veh129" vType="veh_passenger" speedFactor="1.06" vaporized=""/>
    <tripinfo id="veh81" depart="75.00" departLane="-1281579932.229_0" departPos="5.10" departSpeed="0.00" departDelay="0.25" arrival="163.00" arrivalLane="1261910124_0" arrivalPos="270.51" arrivalSpeed="17.34" duration="88.00" routeLength="755.19" waitingTime="30.00" waitingCount="2" stopTime="0.00" timeLoss="49.62" rerouteNo="1" devices="tripinfo_veh81 routing_veh81" vType="veh_passenger" speedFactor="1.04" vaporized=""/>
    <tripinfo id="veh14" depart="17.00" departLane="-835709649.130_2" departPos="5.10" departSpeed="0.00" departDelay="0.81" arrival="165.00" arrivalLane="1282213042_0" arrivalPos="165.04" arrivalSpeed="20.83" duration="148.00" routeLength="1077.33" waitingTime="61.00" waitingCount="2" stopTime="0.00" timeLoss="95.83" rerouteNo="1" devices="tripinfo_veh14 routing_veh14" vType="veh_passenger" speedFactor="0.95" vaporized=""/>
    <tripinfo id="veh26" depart="29.00" departLane="348676457_0" departPos="5.10" departSpeed="20.75" departDelay="0.22" arrival="167.00" arrivalLane="491855300_0" arrivalPos="79.17" arrivalSpeed="19.53" duration="138.00" routeLength="1412.91" waitingTime="41.00" waitingCount="2" stopTime="0.00" timeLoss="67.35" rerouteNo="1" devices="tripinfo_veh26 routing_veh26" vType="veh_passenger" speedFactor="0.93" vaporized=""/>
    <tripinfo id="veh2" depart="8.00" departLane="830596755#1.468_0" departPos="5.10" departSpeed="0.00" departDelay="0.40" arrival="169.00" arrivalLane="-1282401628_0" arrivalPos="318.13" arrivalSpeed="17.60" duration="161.00" routeLength="2026.88" waitingTime="3.00" waitingCount="1" stopTime="0.00" timeLoss="36.03" rerouteNo="1" devices="tripinfo_veh2 routing_veh2" vType="veh_passenger" speedFactor="0.81" vaporized=""/>
    <tripinfo id="veh35" depart="28.00" departLane="-1261910124_2" departPos="5.10" departSpeed="17.73" departDelay="0.02" arrival="169.00" arrivalLane="1282213019_0" arrivalPos="363.97" arrivalSpeed="24.24" duration="141.00" routeLength="1578.17" waitingTime="43.00" waitingCount="1" stopTime="0.00" timeLoss="59.33" rerouteNo="1" devices="tripinfo_veh35 routing_veh35" vType="veh_passenger" speedFactor="1.06" vaporized=""/>
    <tripinfo id="veh69" depart="61.00" departLane="491849325_1" departPos="5.10" departSpeed="18.88" departDelay="0.84" arrival="177.00" arrivalLane="491853013_1" arrivalPos="84.20" arrivalSpeed="14.32" duration="116.00" routeLength="1175.30" waitingTime="18.00" waitingCount="1" stopTime="0.00" timeLoss="42.67" rerouteNo="1" devices="tripinfo_veh69 routing_veh69" vType="veh_passenger" speedFactor="0.68" vaporized=""/>
    <tripinfo id="veh134" depart="113.00" departLane="-1261910085.272_1" departPos="5.10" departSpeed="0.00" departDelay="3.89" arrival="183.00" arrivalLane="-491853013.43_1" arrivalPos="37.18" arrivalSpeed="4.88" duration="70.00" routeLength="529.85" waitingTime="16.00" waitingCount="3" stopTime="0.00" timeLoss="47.80" rerouteNo="1" devices="tripinfo_veh134 routing_veh134" vType="veh_passenger" speedFactor="1.17" vaporized=""/>
    <tripinfo id="veh92" depart="78.00" departLane="-208463886_0" departPos="5.10" departSpeed="0.00" departDelay="4.46" arrival="185.00" arrivalLane="491882468_1" arrivalPos="57.30" arrivalSpeed="27.11" duration="107.00" routeLength="987.06" waitingTime="50.00" waitingCount="1" stopTime="0.00" timeLoss="65.50" rerouteNo="1" devices="tripinfo_veh92 routing_veh92" vType="veh_passenger" speedFactor="0.99" vaporized=""/>
    <tripinfo id="veh47" depart="40.00" departLane="491852285_1" departPos="5.10" departSpeed="0.00" departDelay="0.43" arrival="186.00" arrivalLane="1282213040-AddedOffRampEdge_0" arrivalPos="96.00" arrivalSpeed="24.78" duration="146.00" routeLength="1109.26" waitingTime="63.00" waitingCount="2" stopTime="0.00" timeLoss="85.20" rerouteNo="1" devices="tripinfo_veh47 routing_veh47" vType="veh_passenger" speedFactor="0.91" vaporized=""/>
    <tripinfo id="veh99" depart="81.00" departLane="-491855300_0" departPos="5.10" departSpeed="0.00" departDelay="0.86" arrival="187.00" arrivalLane="831086031_0" arrivalPos="455.40" arrivalSpeed="25.61" duration="106.00" routeLength="1349.92" waitingTime="23.00" waitingCount="1" stopTime="0.00" timeLoss="44.62" rerouteNo="1" devices="tripinfo_veh99 routing_veh99" vType="veh_passenger" speedFactor="0.96" vaporized=""/>
    <tripinfo id="veh107" depart="95.00" departLane="-491882138_1" departPos="5.10" departSpeed="0.00" departDelay="0.47" arrival="187.00" arrivalLane="208463842_0" arrivalPos="225.17" arrivalSpeed="15.03" duration="92.00" routeLength="674.22" waitingTime="36.00" waitingCount="1" stopTime="0.00" timeLoss="47.44" rerouteNo="1" devices="tripinfo_veh107 routing_veh107" vType="veh_passenger" speedFactor="1.11" vaporized=""/>
    <tripinfo id="veh103" depart="87.00" departLane="491847189_0" departPos="5.10" departSpeed="21.90" departDelay="0.67" arrival="189.00" arrivalLane="-1261910085_2" arrivalPos="255.12" arrivalSpeed="15.24" duration="102.00" routeLength="1185.74" waitingTime="25.00" waitingCount="1" stopTime="0.00" timeLoss="40.67" rerouteNo="1" devices="tripinfo_veh103 routing_veh103" vType="veh_passenger" speedFactor="0.99" vaporized=""/>
    <tripinfo id="veh23" depart="26.00" departLane="-1282213042_0" departPos="5.10" departSpeed="19.47" departDelay="0.61" arrival="190.00" arrivalLane="491882469_0" arrivalPos="89.81" arrivalSpeed="23.31" duration="164.00" routeLength="1638.72" waitingTime="67.00" waitingCount="2" stopTime="0.00" timeLoss="84.70" rerouteNo="1" devices="tripinfo_veh23 routing_veh23" vType="veh_passenger" speedFactor="0.88" vaporized=""/>
    <tripinfo id="veh43" depart="42.00" departLane="830596755#1_0" departPos="5.10" departSpeed="0.00" departDelay="0.63" arrival="190.00" arrivalLane="1261910085_0" arrivalPos="284.34" arrivalSpeed="16.79" duration="148.00" routeLength="1691.17" waitingTime="44.00" waitingCount="2" stopTime="0.00" timeLoss="78.26" rerouteNo="1" devices="tripinfo_veh43 routing_veh43" vType="veh_passenger" speedFactor="1.14" vaporized=""/>
    <tripinfo id="veh75" depart="63.00" departLane="828032853#1_0" departPos="5.10" departSpeed="0.00" departDelay="0.05" arrival="190.00" arrivalLane="-491852284_0" arrivalPos="72.44" arrivalSpeed="11.52" duration="127.00" routeLength="989.01" waitingTime="44.00" waitingCount="2" stopTime="0.00" timeLoss="64.09" rerouteNo="1" devices="tripinfo_veh75 routing_veh75" vType="veh_passenger" speedFactor="0.88" vaporized=""/>
    <tripinfo id="veh27" depart="28.00" departLane="-491852285_1" departPos="5.10" departSpeed="0.00" departDelay="0.42" arrival="191.00" arrivalLane="-1261910085.272_2" arrivalPos="77.70" arrivalSpeed="18.83" duration="163.00" routeLength="1702.98" waitingTime="42.00" waitingCount="2" stopTime="0.00" timeLoss="76.82" rerouteNo="1" devices="tripinfo_veh27 routing_veh27" vType="veh_passenger" speedFactor="1.18" vaporized=""/>
    <tripinfo id="veh30" depart="30.00" departLane="830596755#1_0" departPos="5.10" departSpeed="0.00" departDelay="0.02" arrival="191.00" arrivalLane="1261910124_0" arrivalPos="270.51" arrivalSpeed="15.13" duration="161.00" routeLength="2008.51" waitingTime="39.00" waitingCount="1" stopTime="0.00" timeLoss="65.07" rerouteNo="1" devices="tripinfo_veh30 routing_veh30" vType="veh_passenger" speedFactor="0.98" vaporized=""/>
    <tripinfo id="veh64" depart="55.00" departLane="828032853#1.423_0" departPos="5.10" departSpeed="0.00" departDelay="0.84" arrival="192.00" arrivalLane="-1281579932.229_1" arrivalPos="54.34" arrivalSpeed="13.59" duration="137.00" routeLength="1484.51" waitingTime="18.00" waitingCount="1" stopTime="0.00" timeLoss="45.35" rerouteNo="1" devices="tripinfo_veh64 routing_veh64" vType="veh_passenger" speedFactor="0.97" vaporized=""/>
    <tripinfo id="veh77" depart="69.00" departLane="-491855300_0" departPos="5.10" departSpeed="0.00" departDelay="0.45" arrival="192.00" arrivalLane="491882469_0" arrivalPos="89.81" arrivalSpeed="26.83" duration="123.00" routeLength="1531.39" waitingTime="33.00" waitingCount="1" stopTime="0.00" timeLoss="56.16" rerouteNo="1" devices="tripinfo_veh77 routing_veh77" vType="veh_passenger" speedFactor="0.98" vaporized=""/>
    <tripinfo id="veh0" depart="7.00" departLane="491847189_0" departPos="5.10" departSpeed="19.13" departDelay="0.00" arrival="193.00" arrivalLane="-1261910085.272_2" arrivalPos="77.70" arrivalSpeed="13.37" duration="186.00" routeLength="1272.47" waitingTime="88.00" waitingCount="2" stopTime="0.00" timeLoss="110.48" rerouteNo="1" devices="tripinfo_veh0 routing_veh0" vType="veh_passenger" speedFactor="0.86" vaporized=""/>
    <tripinfo id="veh146" depart="118.00" departLane="-491853358_0" departPos="5.10" departSpeed="0.00" departDelay="0.30" arrival="195.00" arrivalLane="491882468_0" arrivalPos="57.30" arrivalSpeed="28.32" duration="77.00" routeLength="1328.25" waitingTime="0.00" waitingCount="0" stopTime="0.00" timeLoss="23.06" rerouteNo="1" devices="tripinfo_veh146 routing_veh146" vType="veh_passenger" speedFactor="1.06" vaporized=""/>
    <tripinfo id="veh58" depart="49.00" departLane="1282213040-AddedOffRampEdge_0" departPos="5.10" departSpeed="0.00" departDelay="0.64" arrival="197.00" arrivalLane="491882469_0" arrivalPos="89.81" arrivalSpeed="27.61" duration="148.00" routeLength="2192.22" waitingTime="3.00" waitingCount="1" stopTime="0.00" timeLoss="45.37" rerouteNo="1" devices="tripinfo_veh58 routing_veh58" vType="veh_passenger" speedFactor="1.00" vaporized=""/>
    <tripinfo id="veh176" depart="147.00" departLane="348676457_0" departPos="5.10" departSpeed="22.73" departDelay="0.31" arrival="198.00" arrivalLane="835709649_0" arrivalPos="233.66" arrivalSpeed="21.67" duration="51.00" routeLength="816.96" waitingTime="0.00" waitingCount="0" stopTime="0.00" timeLoss="7.58" rerouteNo="1" devices="tripinfo_veh176 routing_veh176" vType="veh_passenger" speedFactor="1.02" vaporized=""/>
    <tripinfo id="veh59" depart="49.00" departLane="-208463883_2" departPos="5.10" departSpeed="0.00" departDelay="0.84" arrival="200.00" arrivalLane="1261910124_1" arrivalPos="270.51" arrivalSpeed="18.55" duration="151.00" routeLength="1688.28" waitingTime="42.00" waitingCount="1" stopTime="0.00" timeLoss="59.39" rerouteNo="1" devices="tripinfo_veh59 routing_veh59" vType="veh_passenger" speedFactor="1.13" vaporized=""/>
    <tripinfo id="veh72" depart="66.00" departLane="-1282401628_0" departPos="5.10" departSpeed="0.00" departDelay="1.45" arrival="200.00" arrivalLane="1282213039#1_0" arrivalPos="124.37" arrivalSpeed="29.55" duration="134.00" routeLength="1524.65" waitingTime="48.00" waitingCount="1" stopTime="0.00" timeLoss="75.82" rerouteNo="1" devices="tripinfo_veh72 routing_veh72" vType="veh_passenger" speedFactor="1.09" vaporized=""/>
    <tripinfo id="veh36" depart="35.00" departLane="835726113_0" departPos="5.10" departSpeed="0.00" departDelay="2.22" arrival="201.00" arrivalLane="1282213040-AddedOffRampEdge_2" arrivalPos="96.00" arrivalSpeed="28.89" duration="166.00" routeLength="2067.53" waitingTime="34.00" waitingCount="1" stopTime="0.00" timeLoss="66.76" rerouteNo="1" devices="tripinfo_veh36 routing_veh36" vType="veh_passenger" speedFactor="1.07" vaporized=""/>
    <tripinfo id="veh104" depart="90.00" departLane="491855300_0" departPos="5.10" departSpeed="0.00" departDelay="0.87" arrival="202.00" arrivalLane="1261910124_0" arrivalPos="270.51" arrivalSpeed="15.76" duration="112.00" routeLength="723.62" waitingTime="52.00" waitingCount="1" stopTime="0.00" timeLoss="68.00" rerouteNo="1" devices="tripinfo_veh104 routing_veh104" vType="veh_passenger" speedFactor="0.99" vaporized=""/>
    <tripinfo id="veh121" depart="100.00" departLane="491852285_0" departPos="5.10" departSpeed="0.00" departDelay="0.28" arrival="202.00" arrivalLane="831076606_0" arrivalPos="372.27" arrivalSpeed="24.21" duration="102.00" routeLength="1271.58" waitingTime="15.00" waitingCount="2" stopTime="0.00" timeLoss="43.45" rerouteNo="1" devices="tripinfo_veh121 routing_veh121" vType="veh_passenger" speedFactor="1.13" vaporized=""/>
    <tripinfo id="veh74" depart="68.00" departLane="1282213043_0" departPos="5.10" departSpeed="0.00" departDelay="0.85" arrival="204.00" arrivalLane="-1261910123.395_0" arrivalPos="14.67" arrivalSpeed="17.55" duration="136.00" routeLength="1712.39" waitingTime="0.00" waitingCount="0" stopTime="0.00" timeLoss="22.33" rerouteNo="1" devices="tripinfo_veh74 routing_veh74" vType="veh_passenger" speedFactor="0.80" vaporized=""/>
    <tripinfo id="veh119" depart="97.00" departLane="830596755#1.468_1" departPos="5.10" departSpeed="0.00" departDelay="0.88" arrival="205.00" arrivalLane="-491853358_0" arrivalPos="247.32" arrivalSpeed="18.98" duration="108.00" routeLength="1349.65" waitingTime="28.00" waitingCount="1" stopTime="0.00" timeLoss="50.51" rerouteNo="1" devices="tripinfo_veh119 routing_veh119" vType="veh_passenger" speedFactor="1.15" vaporized=""/>
    <tripinfo id="veh68" depart="58.00" departLane="1261910123_0" departPos="5.10" departSpeed="0.00" departDelay="0.64" arrival="206.00" arrivalLane="1282213039#1_0" arrivalPos="124.37" arrivalSpeed="27.75" duration="148.00" routeLength="1940.76" waitingTime="33.00" waitingCount="1" stopTime="0.00" timeLoss="65.05" rerouteNo="1" devices="tripinfo_veh68 routing_veh68" vType="veh_passenger" speedFactor="1.00" vaporized=""/>
    <tripinfo id="veh154" depart="134.00" departLane="1261910085.305_3" departPos="5.10" departSpeed="0.00" departDelay="0.90" arrival="206.00" arrivalLane="1261910124_1" arrivalPos="270.51" arrivalSpeed="12.26" duration="72.00" routeLength="341.15" waitingTime="35.00" waitingCount="1" stopTime="0.00" timeLoss="45.69" rerouteNo="0" devices="tripinfo_veh154 routing_veh154" vType="veh_passenger" speedFactor="0.80" vaporized=""/>
    <tripinfo id="veh228" depart="185.00" departLane="1281579928_1" departPos="5.10" departSpeed="0.00" departDelay="1.75" arrival="206.00" arrivalLane="1281579928_1" arrivalPos="321.02" arrivalSpeed="20.33" duration="21.00" routeLength="315.92" waitingTime="0.00" waitingCount="0" stopTime="0.00" timeLoss="5.21" rerouteNo="1" devices="tripinfo_veh228 routing_veh228" vType="veh_passenger" speedFactor="0.92" vaporized=""/>
    <tripinfo id="veh16" depart="23.00" departLane="828032853#1.423_0" departPos="5.10" departSpeed="0.00" departDelay="0.21" arrival="210.00" arrivalLane="208463842_1" arrivalPos="225.17" arrivalSpeed="11.74" duration="187.00" routeLength="1355.66" waitingTime="75.00" waitingCount="3" stopTime="0.00" timeLoss="107.83" rerouteNo="1" devices="tripinfo_veh16 routing_veh16" vType="veh_passenger" speedFactor="0.90" vaporized=""/>