<?xml version="1.0" encoding="UTF-8"?>

<!-- generated on 2026-03-15T16:56:21.622235+08:00 by Eclipse SUMO GUI 1.25.0
<sumoConfiguration xmlns:xsi="http://www.w3.org/2001/XMLSchema-instance" xsi:noNamespaceSchemaLocation="http://sumo.dlr.de/xsd/sumoConfiguration.xsd">

    <input>
        <net-file value="D:\学校\毕设\Project\Model\nets\osm.net.xml.gz"/>
        <route-files value="D:\学校\毕设\Project\Model\nets\osm.passenger.trips.xml"/>
    </input>

    <output>
        <tripinfo-output value="D:\学校\毕设\Project\Model\nets\tripinfos.xml"/>
        <statistic-output value="D:\学校\毕设\Project\Model\nets\stats.xml"/>
    </output>

    <processing>
        <ignore-route-errors value="true"/>
        <random-depart-offset value="10"/>
        <tls.actuated.jam-threshold value="30"/>
    </processing>

    <routing>
        <device.rerouting.adaptation-steps value="18"/>
        <device.rerouting.adaptation-interval value="10"/>
    </routing>

    <report>
        <verbose value="true"/>
        <duration-log.statistics value="true"/>
        <no-step-log value="true"/>
    </report>

    <random_number>
        <random value="true"/>
    </random_number>

    <gui_only>
        <gui-settings-file value="D:\学校\毕设\Project\Model\nets\osm.view.xml"/>
    </gui_only>

</sumoConfiguration>
-->

<tripinfos xmlns:xsi="http://www.w3.org/2001/XMLSchema-instance" xsi:noNamespaceSchemaLocation="http://sumo.dlr.de/xsd/tripinfo_file.xsd">
    <tripinfo id="veh7" depart="17.00" departLane="491853358_0" departPos="5.10" departSpeed="0.00" departDelay="0.67" arrival="40.00" arrivalLane="491855300_0" arrivalPos="79.17" arrivalSpeed="17.43" duration="23.00" routeLength="330.51" waitingTime="0.00" waitingCount="0" stopTime="0.00" timeLoss="4.87" rerouteNo="0" devices="tripinfo_veh7 routing_veh7" vType="veh_passenger" speedFactor="0.82" vaporized=""/>
    <tripinfo id="veh5" depart="13.00" departLane="-1261910085.272_1" departPos="5.10" departSpeed="0.00" departDelay="0.34" arrival="59.00" arrivalLane="-491853013.43_1" arrivalPos="37.18" arrivalSpeed="14.70" duration="46.00" routeLength="529.85" waitingTime="9.00" waitingCount="1" stopTime="0.00" timeLoss="21.90" rerouteNo="1" devices="tripinfo_veh5 routing_veh5" vType="veh_passenger" speedFactor="1.10" vaporized=""/>
    <tripinfo id="veh15" depart="24.00" departLane="491882468_3" departPos="5.10" departSpeed="0.00" departDelay="0.02" arrival="66.00" arrivalLane="491849842_0" arrivalPos="328.46" arrivalSpeed="15.22" duration="42.00" routeLength="414.34" waitingTime="6.00" waitingCount="1" stopTime="0.00" timeLoss="16.75" rerouteNo="0" devices="tripinfo_veh15 routing_veh15" vType="veh_passenger" speedFactor="1.15" vaporized=""/>
    <tripinfo id="veh20" depart="30.00" departLane="491847189_0" departPos="5.10" departSpeed="21.33" departDelay="0.36" arrival="66.00" arrivalLane="1281579928_0" arrivalPos="321.02" arrivalSpeed="20.96" duration="36.00" routeLength="531.08" waitingTime="2.00" waitingCount="1" stopTime="0.00" timeLoss="10.30" rerouteNo="0" devices="tripinfo_veh20 routing_veh20" vType="veh_passenger" speedFactor="0.96" vaporized=""/>
    <tripinfo id="veh21" depart="32.00" departLane="-835709649.130_1" departPos="5.10" departSpeed="0.00" departDelay="0.02" arrival="71.00" arrivalLane="-491853358_0" arrivalPos="247.32" arrivalSpeed="23.86" duration="39.00" routeLength="464.17" waitingTime="5.00" waitingCount="1" stopTime="0.00" timeLoss="19.63" rerouteNo="1" devices="tripinfo_veh21 routing_veh21" vType="veh_passenger" speedFactor="1.11" vaporized=""/>
    <tripinfo id="veh24" depart="41.00" departLane="-1282213036#1_0" departPos="5.10" departSpeed="0.00" departDelay="0.03" arrival="74.00" arrivalLane="1282213019_0" arrivalPos="363.97" arrivalSpeed="22.45" duration="33.00" routeLength="409.46" waitingTime="5.00" waitingCount="1" stopTime="0.00" timeLoss="13.50" rerouteNo="0" devices="tripinfo_veh24 routing_veh24" vType="veh_passenger" speedFactor="0.85" vaporized=""/>
    <tripinfo id="veh1" depart="11.00" departLane="491849325_1" departPos="5.10" departSpeed="32.41" departDelay="0.67" arrival="76.00" arrivalLane="491853358_1" arrivalPos="247.33" arrivalSpeed="25.03" duration="65.00" routeLength="1422.73" waitingTime="0.00" waitingCount="0" stopTime="0.00" timeLoss="12.86" rerouteNo="1" devices="tripinfo_veh1 routing_veh1" vType="veh_passenger" speedFactor="1.17" vaporized=""/>
    <tripinfo id="veh6" depart="15.00" departLane="-491852284_1" departPos="5.10" departSpeed="0.00" departDelay="0.01" arrival="86.00" arrivalLane="208463842_0" arrivalPos="225.17" arrivalSpeed="13.79" duration="71.00" routeLength="939.53" waitingTime="0.00" waitingCount="0" stopTime="0.00" timeLoss="6.52" rerouteNo="1" devices="tripinfo_veh6 routing_veh6" vType="veh_passenger" speedFactor="1.06" vaporized=""/>
    <tripinfo id="veh49" depart="70.00" departLane="830596755#1_1" departPos="5.10" departSpeed="0.00" departDelay="0.72" arrival="96.00" arrivalLane="830596755#1_0" arrivalPos="458.74" arrivalSpeed="24.30" duration="26.00" routeLength="453.64" waitingTime="0.00" waitingCount="0" stopTime="0.00" timeLoss="6.56" rerouteNo="1" devices="tripinfo_veh49 routing_veh49" vType="veh_passenger" speedFactor="0.88" vaporized=""/>
    <tripinfo id="veh4" depart="15.00" departLane="-491852284_0" departPos="5.10" departSpeed="0.00" departDelay="0.67" arrival="110.00" arrivalLane="1282213040_2" arrivalPos="284.84" arrivalSpeed="27.60" duration="95.00" routeLength="1513.77" waitingTime="0.00" waitingCount="0" stopTime="0.00" timeLoss="15.39" rerouteNo="1" devices="tripinfo_veh4 routing_veh4" vType="veh_passenger" speedFactor="1.02" vaporized=""/>
    <tripinfo id="veh71" depart="100.00" departLane="1261910085.305_2" departPos="5.10" departSpeed="0.00" departDelay="0.41" arrival="127.00" arrivalLane="1261910124_1" arrivalPos="270.51" arrivalSpeed="15.72" duration="27.00" routeLength="341.15" waitingTime="0.00" waitingCount="0" stopTime="0.00" timeLoss="5.45" rerouteNo="0" devices="tripinfo_veh71 routing_veh71" vType="veh_passenger" speedFactor="0.99" vaporized=""/>
    <tripinfo id="veh50" depart="72.00" departLane="-831076606_0" departPos="5.10" departSpeed="23.24" departDelay="0.39" arrival="131.00" arrivalLane="-1261910123.395_0" arrivalPos="14.67" arrivalSpeed="22.52" duration="59.00" routeLength="1099.08" waitingTime="0.00" waitingCount="0" stopTime="0.00" timeLoss="11.10" rerouteNo="1" devices="tripinfo_veh50 routing_veh50" vType="veh_passenger" speedFactor="1.05" vaporized=""/>
    <tripinfo id="veh9" depart="21.00" departLane="831086029.137_2" departPos="5.10" departSpeed="0.00" departDelay="0.01" arrival="135.00" arrivalLane="1261910124_0" arrivalPos="270.51" arrivalSpeed="18.79" duration="114.00" routeLength="1337.91" waitingTime="22.00" waitingCount="2" stopTime="0.00" timeLoss="46.00" rerouteNo="1" devices="tripinfo_veh9 routing_veh9" vType="veh_passenger" speedFactor="1.14" vaporized=""/>
    <tripinfo id="veh8" depart="14.00" departLane="-835709649_1" departPos="5.10" departSpeed="22.55" departDelay="0.34" arrival="144.00" arrivalLane="-348676457_1" arrivalPos="217.87" arrivalSpeed="21.28" duration="130.00" routeLength="854.32" waitingTime="68.00" waitingCount="2" stopTime="0.00" timeLoss="84.66" rerouteNo="1" devices="tripinfo_veh8 routing_veh8" vType="veh_passenger" speedFactor="1.01" vaporized=""/>
    <tripinfo id="veh45" depart="62.00" departLane="-831076606_1" departPos="5.10" departSpeed="20.17" departDelay="0.05" arrival="145.00" arrivalLane="491852284_0" arrivalPos="72.44" arrivalSpeed="11.83" duration="83.00" routeLength="1070.27" waitingTime="4.00" waitingCount="1" stopTime="0.00" timeLoss="17.40" rerouteNo="1" devices="tripinfo_veh45 routing_veh45" vType="veh_passenger" speedFactor="0.91" vaporized=""/>
    <tripinfo id="veh13" depart="25.00" departLane="1282213040-AddedOffRampEdge_0" departPos="5.10" departSpeed="0.00" departDelay="0.68" arrival="146.00" arrivalLane="835709649_1" arrivalPos="233.66" arrivalSpeed="23.05" duration="121.00" routeLength="911.76" waitingTime="54.00" waitingCount="1" stopTime="0.00" timeLoss="74.93" rerouteNo="1" devices="tripinfo_veh13 routing_veh13" vType="veh_passenger" speedFactor="1.07" vaporized=""/>
    <tripinfo id="veh29" depart="42.00" departLane="-208463886.421_0" departPos="5.10" departSpeed="0.00" departDelay="0.36" arrival="149.00" arrivalLane="835709649_1" arrivalPos="233.66" arrivalSpeed="21.13" duration="107.00" routeLength="1243.04" waitingTime="21.00" waitingCount="1" stopTime="0.00" timeLoss="42.75" rerouteNo="1" devices="tripinfo_veh29 routing_veh29" vType="veh_passenger" speedFactor="0.98" vaporized=""/>
    <tripinfo id="veh3" depart="5.00" departLane="1261910123_0" departPos="5.10" departSpeed="0.00" departDelay="0.00" arrival="152.00" arrivalLane="-1261910085.272_0" arrivalPos="77.70" arrivalSpeed="16.51" duration="147.00" routeLength="1873.56" waitingTime="21.00" waitingCount="1" stopTime="0.00" timeLoss="48.90" rerouteNo="1" devices="tripinfo_veh3 routing_veh3" vType="veh_passenger" speedFactor="1.01" vaporized=""/>
    <tripinfo id="veh76" depart="103.00" departLane="1282213036#1_0" departPos="5.10" departSpeed="0.00" departDelay="0.75" arrival="152.00" arrivalLane="-491855300_0" arrivalPos="79.17" arrivalSpeed="19.24" duration="49.00" routeLength="595.56" waitingTime="0.00" waitingCount="0" stopTime="0.00" timeLoss="8.70" rerouteNo="1" devices="tripinfo_veh76 routing_veh76" vType="veh_passenger" speedFactor="0.89" vaporized=""/>
    <tripinfo id="veh10" depart="22.00" departLane="-1261910124_1" departPos="5.10" departSpeed="13.76" departDelay="0.68" arrival="160.00" arrivalLane="-208463883_0" arrivalPos="470.25" arrivalSpeed="12.53" duration="138.00" routeLength="1140.78" waitingTime="43.00" waitingCount="1" stopTime="0.00" timeLoss="54.34" rerouteNo="1" devices="tripinfo_veh10 routing_veh10" vType="veh_passenger" speedFactor="0.83" vaporized=""/>
    <tripinfo id="veh14" depart="28.00" departLane="-835709649.130_2" departPos="5.10" departSpeed="0.00" departDelay="0.35" arrival="165.00" arrivalLane="1282213042_0" arrivalPos="165.04" arrivalSpeed="18.77" duration="137.00" routeLength="1077.33" waitingTime="58.00" waitingCount="2" stopTime="0.00" timeLoss="80.09" rerouteNo="1" devices="tripinfo_veh14 routing_veh14" vType="veh_passenger" speedFactor="0.88" vaporized=""/>
    <tripinfo id="veh17" depart="26.00" departLane="491849325_1" departPos="5.10" departSpeed="25.94" departDelay="0.35" arrival="167.00" arrivalLane="-1261910123.395_1" arrivalPos="14.67" arrivalSpeed="16.20" duration="141.00" routeLength="1841.03" waitingTime="38.00" waitingCount="1" stopTime="0.00" timeLoss="55.83" rerouteNo="1" devices="tripinfo_veh17 routing_veh17" vType="veh_passenger" speedFactor="0.93" vaporized=""/>
    <tripinfo id="veh35" depart="55.00" departLane="-1261910124_2" departPos="5.10" departSpeed="17.40" departDelay="0.37" arrival="167.00" arrivalLane="1282213019_0" arrivalPos="363.97" arrivalSpeed="28.86" duration="112.00" routeLength="1578.17" waitingTime="15.00" waitingCount="1" stopTime="0.00" timeLoss="28.18" rerouteNo="1" devices="tripinfo_veh35 routing_veh35" vType="veh_passenger" speedFactor="1.04" vaporized=""/>
    <tripinfo id="veh81" depart="113.00" departLane="-1281579932.229_0" departPos="5.10" departSpeed="0.00" departDelay="0.09" arrival="167.00" arrivalLane="1261910124_0" arrivalPos="270.51" arrivalSpeed="13.85" duration="54.00" routeLength="755.19" waitingTime="0.00" waitingCount="0" stopTime="0.00" timeLoss="10.30" rerouteNo="1" devices="tripinfo_veh81 routing_veh81" vType="veh_passenger" speedFactor="0.91" vaporized=""/>
    <tripinfo id="veh97" depart="142.00" departLane="835726113_0" departPos="5.10" departSpeed="0.00" departDelay="10.77" arrival="168.00" arrivalLane="835726113_0" arrivalPos="437.56" arrivalSpeed="18.25" duration="26.00" routeLength="432.46" waitingTime="0.00" waitingCount="0" stopTime="0.00" timeLoss="7.90" rerouteNo="1" devices="tripinfo_veh97 routing_veh97" vType="veh_passenger" speedFactor="1.09" vaporized=""/>
    <tripinfo id="veh52" depart="79.00" departLane="-1261910124_2" departPos="5.10" departSpeed="16.49" departDelay="0.72" arrival="171.00" arrivalLane="1282213039#1_0" arrivalPos="124.37" arrivalSpeed="26.38" duration="92.00" routeLength="1441.37" waitingTime="0.00" waitingCount="0" stopTime="0.00" timeLoss="11.01" rerouteNo="1" devices="tripinfo_veh52 routing_veh52" vType="veh_passenger" speedFactor="0.99" vaporized=""/>
    <tripinfo id="veh22" depart="36.00" departLane="-491855300_0" departPos="5.10" departSpeed="0.00" departDelay="0.69" arrival="172.00" arrivalLane="831086031_0" arrivalPos="455.40" arrivalSpeed="26.72" duration="136.00" routeLength="1349.92" waitingTime="54.00" waitingCount="1" stopTime="0.00" timeLoss="75.81" rerouteNo="1" devices="tripinfo_veh22 routing_veh22" vType="veh_passenger" speedFactor="0.99" vaporized=""/>
    <tripinfo id="veh39" depart="55.00" departLane="491849325_1" departPos="5.10" departSpeed="25.09" departDelay="0.04" arrival="175.00" arrivalLane="1282213042_0" arrivalPos="165.04" arrivalSpeed="22.91" duration="120.00" routeLength="1606.87" waitingTime="25.00" waitingCount="1" stopTime="0.00" timeLoss="54.23" rerouteNo="1" devices="tripinfo_veh39 routing_veh39" vType="veh_passenger" speedFactor="1.04" vaporized=""/>
    <tripinfo id="veh47" depart="63.00" departLane="491852285_1" departPos="5.10" departSpeed="0.00" departDelay="0.38" arrival="179.00" arrivalLane="1282213040-AddedOffRampEdge_0" arrivalPos="96.00" arrivalSpeed="25.82" duration="116.00" routeLength="1109.26" waitingTime="41.00" waitingCount="1" stopTime="0.00" timeLoss="57.04" rerouteNo="1" devices="tripinfo_veh47 routing_veh47" vType="veh_passenger" speedFactor="0.94" vaporized=""/>
    <tripinfo id="veh92" depart="126.00" departLane="-208463886_0" departPos="5.10" departSpeed="0.00" departDelay="0.43" arrival="179.00" arrivalLane="491882468_1" arrivalPos="57.30" arrivalSpeed="28.75" duration="53.00" routeLength="987.06" waitingTime="0.00" waitingCount="0" stopTime="0.00" timeLoss="12.67" rerouteNo="1" devices="tripinfo_veh92 routing_veh92" vType="veh_passenger" speedFactor="1.04" vaporized=""/>
    <tripinfo id="veh46" depart="66.00" departLane="491850744_0" departPos="5.10" departSpeed="0.00" departDelay="1.72" arrival="180.00" arrivalLane="1282213042_0" arrivalPos="165.04" arrivalSpeed="23.11" duration="114.00" routeLength="1836.18" waitingTime="0.00" waitingCount="0" stopTime="0.00" timeLoss="29.32" rerouteNo="1" devices="tripinfo_veh46 routing_veh46" vType="veh_passenger" speedFactor="1.05" vaporized=""/>
    <tripinfo id="veh69" depart="100.00" departLane="491849325_1" departPos="5.10" departSpeed="25.09" departDelay="0.07" arrival="184.00" arrivalLane="491853013_1" arrivalPos="84.20" arrivalSpeed="21.57" duration="84.00" routeLength="1175.30" waitingTime="15.00" waitingCount="1" stopTime="0.00" timeLoss="38.77" rerouteNo="1" devices="tripinfo_veh69 routing_veh69" vType="veh_passenger" speedFactor="1.09" vaporized=""/>
    <tripinfo id="veh51" depart="71.00" departLane="830596755#1_0" departPos="5.10" departSpeed="0.00" departDelay="0.06" arrival="185.00" arrivalLane="835709649_1" arrivalPos="233.66" arrivalSpeed="24.66" duration="114.00" routeLength="1666.13" waitingTime="19.00" waitingCount="1" stopTime="0.00" timeLoss="50.79" rerouteNo="1" devices="tripinfo_veh51 routing_veh51" vType="veh_passenger" speedFactor="1.17" vaporized=""/>
    <tripinfo id="veh75" depart="101.00" departLane="828032853#1_0" departPos="5.10" departSpeed="0.00" departDelay="0.08" arrival="189.00" arrivalLane="-491852284_0" arrivalPos="72.44" arrivalSpeed="12.51" duration="88.00" routeLength="989.01" waitingTime="7.00" waitingCount="2" stopTime="0.00" timeLoss="31.36" rerouteNo="1" devices="tripinfo_veh75 routing_veh75" vType="veh_passenger" speedFactor="0.97" vaporized=""/>
    <tripinfo id="veh64" depart="91.00" departLane="828032853#1.423_0" departPos="5.10" departSpeed="0.00" departDelay="0.74" arrival="190.00" arrivalLane="-1281579932.229_1" arrivalPos="54.34" arrivalSpeed="15.05" duration="99.00" routeLength="1484.51" waitingTime="0.00" waitingCount="0" stopTime="0.00" timeLoss="14.90" rerouteNo="1" devices="tripinfo_veh64 routing_veh64" vType="veh_passenger" speedFactor="1.06" vaporized=""/>
    <tripinfo id="veh43" depart="58.00" departLane="830596755#1_0" departPos="5.10" departSpeed="0.00" departDelay="0.71" arrival="192.00" arrivalLane="1261910085_0" arrivalPos="284.34" arrivalSpeed="15.64" duration="134.00" routeLength="1691.17" waitingTime="26.00" waitingCount="1" stopTime="0.00" timeLoss="52.74" rerouteNo="1" devices="tripinfo_veh43 routing_veh43" vType="veh_passenger" speedFactor="0.96" vaporized=""/>
    <tripinfo id="veh26" depart="45.00" departLane="348676457_0" departPos="5.10" departSpeed="23.05" departDelay="0.36" arrival="194.00" arrivalLane="491855300_2" arrivalPos="79.17" arrivalSpeed="22.61" duration="149.00" routeLength="1412.91" waitingTime="66.00" waitingCount="2" stopTime="0.00" timeLoss="86.01" rerouteNo="1" devices="tripinfo_veh26 routing_veh26" vType="veh_passenger" speedFactor="1.04" vaporized=""/>
    <tripinfo id="veh0" depart="9.00" departLane="491847189_0" departPos="5.10" departSpeed="22.48" departDelay="0.00" arrival="195.00" arrivalLane="-1261910085.272_3" arrivalPos="77.70" arrivalSpeed="16.16" duration="186.00" routeLength="1272.47" waitingTime="101.00" waitingCount="2" stopTime="0.00" timeLoss="121.80" rerouteNo="1" devices="tripinfo_veh0 routing_veh0" vType="veh_passenger" speedFactor="1.01" vaporized=""/>
    <tripinfo id="veh23" depart="40.00" departLane="-1282213042_0" departPos="5.10" departSpeed="21.80" departDelay="0.36" arrival="196.00" arrivalLane="491882469_0" arrivalPos="89.81" arrivalSpeed="21.64" duration="156.00" routeLength="1638.72" waitingTime="54.00" waitingCount="2" stopTime="0.00" timeLoss="84.39" rerouteNo="1" devices="tripinfo_veh23 routing_veh23" vType="veh_passenger" speedFactor="0.98" vaporized=""/>
    <tripinfo id="veh77" depart="106.00" departLane="-491855300_0" departPos="5.10" departSpeed="0.00" departDelay="0.42" arrival="196.00" arrivalLane="491882469_1" arrivalPos="89.81" arrivalSpeed="20.93" duration="90.00" routeLength="1531.39" waitingTime="0.00" waitingCount="0" stopTime="0.00" timeLoss="35.29" rerouteNo="1" devices="tripinfo_veh77 routing_veh77" vType="veh_passenger" speedFactor="1.19" vaporized=""/>
    <tripinfo id="veh19" depart="26.00" departLane="-1261910124_3" departPos="5.10" departSpeed="16.18" departDelay="0.69" arrival="199.00" arrivalLane="-491882138_0" arrivalPos="82.30" arrivalSpeed="12.81" duration="173.00" routeLength="1396.95" waitingTime="70.00" waitingCount="2" stopTime="0.00" timeLoss="91.25" rerouteNo="1" devices="tripinfo_veh19 routing_veh19" vType="veh_passenger" speedFactor="0.97" vaporized=""/>
    <tripinfo id="veh36" depart="53.00" departLane="835726113_0" departPos="5.10" departSpeed="0.00" departDelay="3.04" arrival="200.00" arrivalLane="1282213040-AddedOffRampEdge_0" arrivalPos="96.00" arrivalSpeed="30.51" duration="147.00" routeLength="2067.53" waitingTime="17.00" waitingCount="1" stopTime="0.00" timeLoss="52.31" rerouteNo="1" devices="tripinfo_veh36 routing_veh36" vType="veh_passenger" speedFactor="1.12" vaporized=""/>
    <tripinfo id="veh104" depart="144.00" departLane="491855300_0" departPos="5.10" departSpeed="0.00" departDelay="0.45" arrival="201.00" arrivalLane="1261910124_1" arrivalPos="270.51" arrivalSpeed="17.49" duration="57.00" routeLength="723.41" waitingTime="0.00" waitingCount="0" stopTime="0.00" timeLoss="17.99" rerouteNo="1" devices="tripinfo_veh104 routing_veh104" vType="veh_passenger" speedFactor="1.13" vaporized=""/>
    <tripinfo id="veh16" depart="23.00" departLane="828032853#1.423_0" departPos="5.10" departSpeed="0.00" departDelay="0.68" arrival="202.00" arrivalLane="208463842_1" arrivalPos="225.17" arrivalSpeed="12.89" duration="179.00" routeLength="1355.66" waitingTime="79.00" waitingCount="2" stopTime="0.00" timeLoss="104.64" rerouteNo="1" devices="tripinfo_veh16 routing_veh16" vType="veh_passenger" speedFactor="0.97" vaporized=""/>
    <tripinfo id="veh12" depart="25.00" departLane="491853358_1" departPos="5.10" departSpeed="0.00" departDelay="0.01" arrival="207.00" arrivalLane="491882469_0" arrivalPos="89.81" arrivalSpeed="32.19" duration="182.00" routeLength="2002.18" waitingTime="69.00" waitingCount="3" stopTime="0.00" timeLoss="104.72" rerouteNo="1" devices="tripinfo_veh12 routing_veh12" vType="veh_passenger" speedFactor="1.17" vaporized=""/>
    <tripinfo id="veh44" depart="60.00" departLane="831086029_1" departPos="5.10" departSpeed="36.13" departDelay="0.38" arrival="208.00" arrivalLane="831076606_0" arrivalPos="372.27" arrivalSpeed="28.32" duration="148.00" routeLength="2237.38" waitingTime="27.00" waitingCount="2" stopTime="0.00" timeLoss="73.43" rerouteNo="1" devices="tripinfo_veh44 routing_veh44" vType="veh_passenger" speedFactor="1.30" vaporized=""/>
    <tripinfo id="veh128" depart="175.00" departLane="491855300_0" departPos="5.10" departSpeed="0.00" departDelay="0.47" arrival="208.00" arrivalLane="1261910085_1" arrivalPos="284.34" arrivalSpeed="14.71" duration="33.00" routeLength="368.96" waitingTime="0.00" waitingCount="0" stopTime="0.00" timeLoss="9.08" rerouteNo="0" devices="tripinfo_veh128 routing_veh128" vType="veh_passenger" speedFactor="0.92" vaporized=""/>
    <tripinfo id="veh90" depart="125.00" departLane="1261910123_1" departPos="5.10" departSpeed="0.00" departDelay="0.10" arrival="222.00" arrivalLane="208463842_1" arrivalPos="225.17" arrivalSpeed="13.00" duration="97.00" routeLength="950.55" waitingTime="26.00" waitingCount="1" stopTime="0.00" timeLoss="44.55" rerouteNo="1" devices="tripinfo_veh90 routing_veh90" vType="veh_passenger" speedFactor="0.96" vaporized=""/>
    <tripinfo id="veh84" depart="113.00" departLane="-1261910124_3" departPos="5.10" departSpeed="17.08" departDelay="0.09" arrival="224.00" arrivalLane="208463842_1" arrivalPos="225.17" arrivalSpeed="13.01" duration="111.00" routeLength="1248.47" waitingTime="17.00" waitingCount="1" stopTime="0.00" timeLoss="43.96" rerouteNo="1" devices="tripinfo_veh84 routing_veh84" vType="veh_passenger" speedFactor="1.02" vaporized=""/>
    <tripinfo id="veh37" depart="51.00" departLane="831086029.193_2" departPos="5.10" departSpeed="0.00" departDelay="0.71" arrival="225.00" arrivalLane="831076606_1" arrivalPos="372.27" arrivalSpeed="22.29" duration="174.00" routeLength="2039.44" waitingTime="38.00" waitingCount="3" stopTime="0.00" timeLoss="87.77" rerouteNo="1" devices="tripinfo_veh37 routing_veh37" vType="veh_passenger" speedFactor="1.03" vaporized=""/>
    <tripinfo id="veh66" depart="89.00" departLane="831086029_1" departPos="5.10" departSpeed="27.98" departDelay="0.07" arrival="230.00" arrivalLane="208463842_1" arrivalPos="225.17" arrivalSpeed="13.14" duration="141.00" routeLength="2087.21" waitingTime="9.00" waitingCount="2" stopTime="0.00" timeLoss="44.30" rerouteNo="1" devices="tripinfo_veh66 routing_veh66" vType="veh_passenger" speedFactor="1.01" vaporized=""/>
    <tripinfo id="veh101" depart="140.00" departLane="-835709649.130_3" departPos="5.10" departSpeed="0.00" departDelay="0.44" arrival="233.00" arrivalLane="-348676457_1" arrivalPos="217.87" arrivalSpeed="17.22" duration="93.00" routeLength="718.57" waitingTime="26.00" waitingCount="1" stopTime="0.00" timeLoss="42.74" rerouteNo="1" devices="tripinfo_veh101 routing_veh101" vType="veh_passenger" speedFactor="0.80" vaporized=""/>
    <tripinfo id="veh2" depart="9.00" departLane="830596755#1.468_0" departPos="5.10" departSpeed="0.00" departDelay="0.34" arrival="234.00" arrivalLane="-1282401628_0" arrivalPos="318.13" arrivalSpeed="5.67" duration="225.00" routeLength="2026.88" waitingTime="77.00" waitingCount="3" stopTime="0.00" timeLoss="125.51" rerouteNo="1" devices="tripinfo_veh2 routing_veh2" vType="veh_passenger" speedFactor="1.02" vaporized=""/>
    <tripinfo id="veh32" depart="52.00" departLane="1261910085.305_1" departPos="5.10" departSpeed="0.00" departDelay="0.37" arrival="234.00" arrivalLane="-491855300_1" arrivalPos="79.17" arrivalSpeed="20.51" duration="182.00" routeLength="521.03" waitingTime="132.00" waitingCount="2" stopTime="0.00" timeLoss="149.68" rerouteNo="1" devices="tripinfo_veh32 routing_veh32" vType="veh_passenger" speedFactor="1.01" vaporized=""/>
    <tripinfo id="veh65" depart="94.00" departLane="-208463886.421_0" departPos="5.10" departSpeed="0.00" departDelay="0.40" arrival="234.00" arrivalLane="-348676457_1" arrivalPos="217.87" arrivalSpeed="19.22" duration="140.00" routeLength="1597.64" waitingTime="28.00" waitingCount="1" stopTime="0.00" timeLoss="70.67" rerouteNo="1" devices="tripinfo_veh65 routing_veh65" vType="veh_passenger" speedFactor="1.20" vaporized=""/>
    <tripinfo id="veh73" depart="101.00" departLane="1282213019_2" departPos="5.10" departSpeed="0.00" departDelay="0.75" arrival="234.00" arrivalLane="831076606_1" arrivalPos="372.27" arrivalSpeed="18.77" duration="133.00" routeLength="1939.02" waitingTime="3.00" waitingCount="2" stopTime="0.00" timeLoss="35.60" rerouteNo="1" devices="tripinfo_veh73 routing_veh73" vType="veh_passenger" speedFactor="0.87" vaporized=""/>
    <tripinfo id="veh34" depart="49.00" departLane="491852723_1" departPos="5.10" departSpeed="0.00" departDelay="0.70" arrival="236.00" arrivalLane="1282213036#1_0" arrivalPos="11.55" arrivalSpeed="8.44" duration="187.00" routeLength="1331.26" waitingTime="79.00" waitingCount="3" stopTime="0.00" timeLoss="107.70" rerouteNo="1" devices="tripinfo_veh34 routing_veh34" vType="veh_passenger" speedFactor="1.01" vaporized=""/>
    <tripinfo id="veh78" depart="104.00" departLane="1282213019.385_3" departPos="5.10" departSpeed="0.00" departDelay="0.08" arrival="241.00" arrivalLane="1282213036#1_0" arrivalPos="11.55" arrivalSpeed="8.11" duration="137.00" routeLength="1523.11" waitingTime="21.00" waitingCount="2" stopTime="0.00" timeLoss="48.43" rerouteNo="1" devices="tripinfo_veh78 routing_veh78" vType="veh_passenger" speedFactor="0.91" vaporized=""/>
    <tripinfo id="veh107" depart="145.00" departLane="-491882138_1" departPos="5.10" departSpeed="0.00" departDelay="0.45" arrival="244.00" arrivalLane="208463842_1" arrivalPos="225.17" arrivalSpeed="13.79" duration="99.00" routeLength="674.22" waitingTime="41.00" waitingCount="1" stopTime="0.00" timeLoss="51.64" rerouteNo="1" devices="tripinfo_veh107 routing_veh107" vType="veh_passenger" speedFactor="1.05" vaporized=""/>
    <tripinfo id="veh116" depart="157.00" departLane="491882468_3" departPos="5.10" departSpeed="0.00" departDelay="0.46" arrival="245.00" arrivalLane="208463842_0" arrivalPos="225.17" arrivalSpeed="15.07" duration="88.00" routeLength="1007.17" waitingTime="5.00" waitingCount="1" stopTime="0.00" timeLoss="22.73" rerouteNo="1" devices="tripinfo_veh116 routing_veh116" vType="veh_passenger" speedFactor="1.09" vaporized=""/>
    <tripinfo id="veh129" depart="180.00" departLane="491852723_1" departPos="5.10" departSpeed="0.00" departDelay="0.14" arrival="246.00" arrivalLane="-208463886_0" arrivalPos="403.47" arrivalSpeed="7.44" duration="66.00" routeLength="763.08" waitingTime="11.00" waitingCount="1" stopTime="0.00" timeLoss="29.54" rerouteNo="1" devices="tripinfo_veh129 routing_veh129" vType="veh_passenger" speedFactor="1.23" vaporized=""/>
    <tripinfo id="veh54" depart="80.00" departLane="491852284_0" departPos="5.10" departSpeed="0.00" departDelay="0.06" arrival="250.00" arrivalLane="-348676457_0" arrivalPos="217.87" arrivalSpeed="25.73" duration="170.00" routeLength="1070.46" waitingTime="88.00" waitingCount="2" stopTime="0.00" timeLoss="126.79" rerouteNo="1" devices="tripinfo_veh54 routing_veh54" vType="veh_passenger" speedFactor="1.20" vaporized=""/>
    <tripinfo id="veh86" depart="123.00" departLane="-1261910124_0" departPos="5.10" departSpeed="17.56" departDelay="0.43" arrival="255.00" arrivalLane="-491853013_1" arrivalPos="39.02" arrivalSpeed="23.19" duration="132.00" routeLength="1046.57" waitingTime="58.00" waitingCount="2" stopTime="0.00" timeLoss="77.19" rerouteNo="1" devices="tripinfo_veh86 routing_veh86" vType="veh_passenger" speedFactor="1.05" vaporized=""/>
    <tripinfo id="veh96" depart="135.00" departLane="-1261910124_2" departPos="5.10" departSpeed="16.75" departDelay="0.10" arrival="255.00" arrivalLane="1282213039#1_0" arrivalPos="124.37" arrivalSpeed="27.73" duration="120.00" routeLength="1441.37" waitingTime="25.00" waitingCount="1" stopTime="0.00" timeLoss="40.23" rerouteNo="1" devices="tripinfo_veh96 routing_veh96" vType="veh_passenger" speedFactor="1.00" vaporized=""/>
    <tripinfo id="veh117" depart="164.00" departLane="-1281579932_1" departPos="5.10" departSpeed="0.00" departDelay="0.13" arrival="255.00" arrivalLane="-348676457_0" arrivalPos="217.87" arrivalSpeed="18.82" duration="91.00" routeLength="950.72" waitingTime="25.00" waitingCount="1" stopTime="0.00" timeLoss="41.82" rerouteNo="1" devices="tripinfo_veh117 routing_veh117" vType="veh_passenger" speedFactor="0.88" vaporized=""/>
    <tripinfo id="veh119" depart="166.00" departLane="830596755#1.468_1" departPos="5.10" departSpeed="0.00" departDelay="0.46" arrival="255.00" arrivalLane="-491853358_0" arrivalPos="247.32" arrivalSpeed="22.73" duration="89.00" routeLength="1349.65" waitingTime="4.00" waitingCount="1" stopTime="0.00" timeLoss="28.03" rerouteNo="1" devices="tripinfo_veh119 routing_veh119" vType="veh_passenger" speedFactor="1.07" vaporized=""/>
    <tripinfo id="veh30" depart="43.00" departLane="830596755#1_0" departPos="5.10" departSpeed="0.00" departDelay="0.03" arrival="257.00" arrivalLane="1261910124_0" arrivalPos="270.51" arrivalSpeed="16.17" duration="214.00" routeLength="2008.51" waitingTime="87.00" waitingCount="2" stopTime="0.00" timeLoss="122.43" rerouteNo="1" devices="tripinfo_veh30 routing_veh30" vType="veh_passenger" speedFactor="1.01" vaporized=""/>