<?xml version="1.0" encoding="UTF-8"?>

<!-- generated on 2026-04-13T02:50:56.430725+08:00 by Eclipse SUMO GUI 1.25.0
<sumoConfiguration xmlns:xsi="http://www.w3.org/2001/XMLSchema-instance" xsi:noNamespaceSchemaLocation="http://sumo.dlr.de/xsd/sumoConfiguration.xsd">

    <input>
        <net-file value="osm.net.xml.gz"/>
        <route-files value="osm.passenger.trips.xml"/>
    </input>

    <output>
        <tripinfo-output value="tripinfos.xml"/>
        <statistic-output value="stats.xml"/>
    </output>

    <processing>
        <ignore-route-errors value="true"/>
        <random-depart-offset value="10"/>
        <tls.actuated.jam-threshold value="30"/>
    </processing>

    <routing>
        <device.rerouting.adaptation-steps value="18"/>
        <device.rerouting.adaptation-interval value="10"/>
    </routing>

    <report>
        <verbose value="true"/>
        <duration-log.statistics value="true"/>
        <no-step-log value="true"/>
    </report>

    <random_number>
        <random value="true"/>
    </random_number>

    <gui_only>
        <gui-settings-file value="osm.view.xml"/>
    </gui_only>

</sumoConfiguration>
-->

<tripinfos xmlns:xsi="http://www.w3.org/2001/XMLSchema-instance" xsi:noNamespaceSchemaLocation="http://sumo.dlr.de/xsd/tripinfo_file.xsd">
    <tripinfo id="veh7" depart="12.00" departLane="491853358_0" departPos="5.10" departSpeed="0.00" departDelay="0.40" arrival="35.00" arrivalLane="491855300_0" arrivalPos="79.17" arrivalSpeed="18.15" duration="23.00" routeLength="330.51" waitingTime="0.00" waitingCount="0" stopTime="0.00" timeLoss="5.16" rerouteNo="0" devices="tripinfo_veh7 routing_veh7" vType="veh_passenger" speedFactor="0.87" vaporized=""/>
    <tripinfo id="veh5" depart="11.00" departLane="-1261910085.272_1" departPos="5.10" departSpeed="0.00" departDelay="0.00" arrival="59.00" arrivalLane="-491853013.43_1" arrivalPos="37.18" arrivalSpeed="13.67" duration="48.00" routeLength="529.85" waitingTime="6.00" waitingCount="1" stopTime="0.00" timeLoss="23.77" rerouteNo="1" devices="tripinfo_veh5 routing_veh5" vType="veh_passenger" speedFactor="1.08" vaporized=""/>
    <tripinfo id="veh15" depart="19.00" departLane="491882468_3" departPos="5.10" departSpeed="0.00" departDelay="0.01" arrival="66.00" arrivalLane="491849842_0" arrivalPos="328.46" arrivalSpeed="13.29" duration="47.00" routeLength="411.99" waitingTime="6.00" waitingCount="1" stopTime="0.00" timeLoss="17.80" rerouteNo="0" devices="tripinfo_veh15 routing_veh15" vType="veh_passenger" speedFactor="0.97" vaporized=""/>
    <tripinfo id="veh20" depart="21.00" departLane="491847189_0" departPos="5.10" departSpeed="23.22" departDelay="0.01" arrival="66.00" arrivalLane="1281579928_0" arrivalPos="321.02" arrivalSpeed="22.78" duration="45.00" routeLength="531.08" waitingTime="11.00" waitingCount="1" stopTime="0.00" timeLoss="21.50" rerouteNo="0" devices="tripinfo_veh20 routing_veh20" vType="veh_passenger" speedFactor="1.05" vaporized=""/>
    <tripinfo id="veh49" depart="44.00" departLane="830596755#1_1" departPos="5.10" departSpeed="0.00" departDelay="0.83" arrival="69.00" arrivalLane="830596755#1_1" arrivalPos="458.74" arrivalSpeed="22.72" duration="25.00" routeLength="453.64" waitingTime="0.00" waitingCount="0" stopTime="0.00" timeLoss="5.81" rerouteNo="1" devices="tripinfo_veh49 routing_veh49" vType="veh_passenger" speedFactor="0.86" vaporized=""/>
    <tripinfo id="veh21" depart="18.00" departLane="-835709649.130_1" departPos="5.10" departSpeed="0.00" departDelay="0.21" arrival="73.00" arrivalLane="-491853358_0" arrivalPos="247.32" arrivalSpeed="20.20" duration="55.00" routeLength="464.17" waitingTime="16.00" waitingCount="1" stopTime="0.00" timeLoss="35.70" rerouteNo="1" devices="tripinfo_veh21 routing_veh21" vType="veh_passenger" speedFactor="1.12" vaporized=""/>
    <tripinfo id="veh24" depart="28.00" departLane="-1282213036#1_0" departPos="5.10" departSpeed="0.00" departDelay="0.82" arrival="75.00" arrivalLane="1282213019_0" arrivalPos="363.97" arrivalSpeed="27.77" duration="47.00" routeLength="409.46" waitingTime="22.00" waitingCount="1" stopTime="0.00" timeLoss="30.30" rerouteNo="0" devices="tripinfo_veh24 routing_veh24" vType="veh_passenger" speedFactor="1.02" vaporized=""/>
    <tripinfo id="veh1" depart="8.00" departLane="491849325_1" departPos="5.10" departSpeed="28.07" departDelay="0.20" arrival="79.00" arrivalLane="491853358_1" arrivalPos="247.33" arrivalSpeed="21.26" duration="71.00" routeLength="1422.73" waitingTime="0.00" waitingCount="0" stopTime="0.00" timeLoss="10.68" rerouteNo="1" devices="tripinfo_veh1 routing_veh1" vType="veh_passenger" speedFactor="1.01" vaporized=""/>
    <tripinfo id="veh22" depart="19.00" departLane="-491855300_0" departPos="5.10" departSpeed="0.00" departDelay="0.41" arrival="95.00" arrivalLane="831086031_0" arrivalPos="455.40" arrivalSpeed="27.39" duration="76.00" routeLength="1349.92" waitingTime="0.00" waitingCount="0" stopTime="0.00" timeLoss="15.75" rerouteNo="1" devices="tripinfo_veh22 routing_veh22" vType="veh_passenger" speedFactor="0.99" vaporized=""/>
    <tripinfo id="veh0" depart="2.00" departLane="491847189_0" departPos="5.10" departSpeed="23.88" departDelay="0.00" arrival="98.00" arrivalLane="-1261910085.272_3" arrivalPos="77.70" arrivalSpeed="17.83" duration="96.00" routeLength="1272.47" waitingTime="21.00" waitingCount="1" stopTime="0.00" timeLoss="35.57" rerouteNo="1" devices="tripinfo_veh0 routing_veh0" vType="veh_passenger" speedFactor="1.07" vaporized=""/>
    <tripinfo id="veh4" depart="6.00" departLane="-491852284_0" departPos="5.10" departSpeed="0.00" departDelay="0.80" arrival="103.00" arrivalLane="1282213040_0" arrivalPos="284.84" arrivalSpeed="26.60" duration="97.00" routeLength="1513.77" waitingTime="0.00" waitingCount="0" stopTime="0.00" timeLoss="13.01" rerouteNo="1" devices="tripinfo_veh4 routing_veh4" vType="veh_passenger" speedFactor="0.97" vaporized=""/>
    <tripinfo id="veh76" depart="66.00" departLane="1282213036#1_0" departPos="5.10" departSpeed="0.00" departDelay="0.25" arrival="106.00" arrivalLane="-491855300_0" arrivalPos="79.17" arrivalSpeed="20.16" duration="40.00" routeLength="595.56" waitingTime="0.00" waitingCount="0" stopTime="0.00" timeLoss="8.42" rerouteNo="1" devices="tripinfo_veh76 routing_veh76" vType="veh_passenger" speedFactor="1.13" vaporized=""/>
    <tripinfo id="veh6" depart="7.00" departLane="-491852284_1" departPos="5.10" departSpeed="0.00" departDelay="0.20" arrival="108.00" arrivalLane="208463842_0" arrivalPos="225.17" arrivalSpeed="10.92" duration="101.00" routeLength="939.53" waitingTime="10.00" waitingCount="1" stopTime="0.00" timeLoss="21.57" rerouteNo="1" devices="tripinfo_veh6 routing_veh6" vType="veh_passenger" speedFactor="0.86" vaporized=""/>
    <tripinfo id="veh71" depart="58.00" departLane="1261910085.305_0" departPos="5.10" departSpeed="0.00" departDelay="0.25" arrival="111.00" arrivalLane="1261910124_0" arrivalPos="270.51" arrivalSpeed="17.04" duration="53.00" routeLength="341.36" waitingTime="23.00" waitingCount="1" stopTime="0.00" timeLoss="33.30" rerouteNo="0" devices="tripinfo_veh71 routing_veh71" vType="veh_passenger" speedFactor="1.07" vaporized=""/>
    <tripinfo id="veh16" depart="17.00" departLane="828032853#1.423_0" departPos="5.10" departSpeed="0.00" departDelay="0.21" arrival="114.00" arrivalLane="208463842_1" arrivalPos="225.17" arrivalSpeed="14.35" duration="97.00" routeLength="1355.66" waitingTime="7.00" waitingCount="2" stopTime="0.00" timeLoss="31.62" rerouteNo="1" devices="tripinfo_veh16 routing_veh16" vType="veh_passenger" speedFactor="1.11" vaporized=""/>
    <tripinfo id="veh10" depart="13.00" departLane="-1261910124_1" departPos="5.10" departSpeed="17.49" departDelay="0.01" arrival="123.00" arrivalLane="-208463883_0" arrivalPos="470.25" arrivalSpeed="16.39" duration="110.00" routeLength="1140.78" waitingTime="35.00" waitingCount="1" stopTime="0.00" timeLoss="44.39" rerouteNo="1" devices="tripinfo_veh10 routing_veh10" vType="veh_passenger" speedFactor="1.05" vaporized=""/>
    <tripinfo id="veh50" depart="42.00" departLane="-831076606_0" departPos="5.10" departSpeed="22.39" departDelay="0.03" arrival="129.00" arrivalLane="-1261910123.395_1" arrivalPos="14.67" arrivalSpeed="17.86" duration="87.00" routeLength="1099.08" waitingTime="27.00" waitingCount="1" stopTime="0.00" timeLoss="37.22" rerouteNo="1" devices="tripinfo_veh50 routing_veh50" vType="veh_passenger" speedFactor="1.01" vaporized=""/>
    <tripinfo id="veh9" depart="14.00" departLane="831086029.137_2" departPos="5.10" departSpeed="0.00" departDelay="0.81" arrival="131.00" arrivalLane="1261910124_0" arrivalPos="270.51" arrivalSpeed="17.92" duration="117.00" routeLength="1337.91" waitingTime="24.00" waitingCount="2" stopTime="0.00" timeLoss="47.95" rerouteNo="1" devices="tripinfo_veh9 routing_veh9" vType="veh_passenger" speedFactor="1.13" vaporized=""/>
    <tripinfo id="veh32" depart="36.00" departLane="1261910085.305_1" departPos="5.10" departSpeed="0.00" departDelay="0.42" arrival="134.00" arrivalLane="-491855300_1" arrivalPos="79.17" arrivalSpeed="21.02" duration="98.00" routeLength="521.03" waitingTime="53.00" waitingCount="1" stopTime="0.00" timeLoss="69.25" rerouteNo="1" devices="tripinfo_veh32 routing_veh32" vType="veh_passenger" speedFactor="1.11" vaporized=""/>
    <tripinfo id="veh72" depart="59.00" departLane="-1282401628_0" departPos="5.10" departSpeed="0.00" departDelay="0.45" arrival="135.00" arrivalLane="1282213039#1_0" arrivalPos="124.37" arrivalSpeed="27.60" duration="76.00" routeLength="1524.65" waitingTime="0.00" waitingCount="0" stopTime="0.00" timeLoss="12.46" rerouteNo="1" devices="tripinfo_veh72 routing_veh72" vType="veh_passenger" speedFactor="1.01" vaporized=""/>
    <tripinfo id="veh13" depart="19.00" departLane="1282213040-AddedOffRampEdge_0" departPos="5.10" departSpeed="0.00" departDelay="0.61" arrival="137.00" arrivalLane="835709649_1" arrivalPos="233.66" arrivalSpeed="23.22" duration="118.00" routeLength="911.76" waitingTime="53.00" waitingCount="1" stopTime="0.00" timeLoss="70.82" rerouteNo="1" devices="tripinfo_veh13 routing_veh13" vType="veh_passenger" speedFactor="1.05" vaporized=""/>
    <tripinfo id="veh90" depart="77.00" departLane="1261910123_1" departPos="5.10" departSpeed="0.00" departDelay="0.06" arrival="137.00" arrivalLane="208463842_1" arrivalPos="225.17" arrivalSpeed="12.21" duration="60.00" routeLength="950.55" waitingTime="0.00" waitingCount="0" stopTime="0.00" timeLoss="8.52" rerouteNo="1" devices="tripinfo_veh90 routing_veh90" vType="veh_passenger" speedFactor="0.97" vaporized=""/>
    <tripinfo id="veh8" depart="9.00" departLane="-835709649_1" departPos="5.10" departSpeed="21.84" departDelay="0.61" arrival="138.00" arrivalLane="-348676457_1" arrivalPos="217.87" arrivalSpeed="21.63" duration="129.00" routeLength="854.32" waitingTime="67.00" waitingCount="2" stopTime="0.00" timeLoss="82.07" rerouteNo="1" devices="tripinfo_veh8 routing_veh8" vType="veh_passenger" speedFactor="0.98" vaporized=""/>
    <tripinfo id="veh29" depart="30.00" departLane="-208463886.421_0" departPos="5.10" departSpeed="0.00" departDelay="0.82" arrival="139.00" arrivalLane="835709649_1" arrivalPos="233.66" arrivalSpeed="20.75" duration="109.00" routeLength="1243.04" waitingTime="26.00" waitingCount="1" stopTime="0.00" timeLoss="45.43" rerouteNo="1" devices="tripinfo_veh29 routing_veh29" vType="veh_passenger" speedFactor="0.99" vaporized=""/>
    <tripinfo id="veh45" depart="46.00" departLane="-831076606_1" departPos="5.10" departSpeed="22.36" departDelay="0.03" arrival="143.00" arrivalLane="491852284_0" arrivalPos="72.44" arrivalSpeed="10.02" duration="97.00" routeLength="1070.27" waitingTime="24.00" waitingCount="1" stopTime="0.00" timeLoss="37.79" rerouteNo="1" devices="tripinfo_veh45 routing_veh45" vType="veh_passenger" speedFactor="1.01" vaporized=""/>
    <tripinfo id="veh97" depart="84.00" departLane="835726113_0" departPos="5.10" departSpeed="0.00" departDelay="0.46" arrival="143.00" arrivalLane="835726113_0" arrivalPos="437.56" arrivalSpeed="8.24" duration="59.00" routeLength="432.46" waitingTime="28.00" waitingCount="1" stopTime="0.00" timeLoss="41.69" rerouteNo="1" devices="tripinfo_veh97 routing_veh97" vType="veh_passenger" speedFactor="1.14" vaporized=""/>
    <tripinfo id="veh2" depart="3.00" departLane="830596755#1.468_0" departPos="5.10" departSpeed="0.00" departDelay="0.40" arrival="147.00" arrivalLane="-1282401628_0" arrivalPos="318.13" arrivalSpeed="11.12" duration="144.00" routeLength="2026.88" waitingTime="12.00" waitingCount="2" stopTime="0.00" timeLoss="54.16" rerouteNo="1" devices="tripinfo_veh2 routing_veh2" vType="veh_passenger" speedFactor="1.13" vaporized=""/>
    <tripinfo id="veh128" depart="109.00" departLane="491855300_0" departPos="5.10" departSpeed="0.00" departDelay="0.68" arrival="148.00" arrivalLane="1261910085_1" arrivalPos="284.34" arrivalSpeed="15.20" duration="39.00" routeLength="368.96" waitingTime="0.00" waitingCount="0" stopTime="0.00" timeLoss="15.49" rerouteNo="0" devices="tripinfo_veh128 routing_veh128" vType="veh_passenger" speedFactor="0.96" vaporized=""/>
    <tripinfo id="veh86" depart="69.00" departLane="-1261910124_0" departPos="5.10" departSpeed="18.02" departDelay="0.26" arrival="150.00" arrivalLane="-491853013_1" arrivalPos="39.02" arrivalSpeed="22.83" duration="81.00" routeLength="1046.57" waitingTime="10.00" waitingCount="2" stopTime="0.00" timeLoss="27.23" rerouteNo="1" devices="tripinfo_veh86 routing_veh86" vType="veh_passenger" speedFactor="1.08" vaporized=""/>
    <tripinfo id="veh117" depart="99.00" departLane="-1281579932_0" departPos="5.10" departSpeed="0.00" departDelay="0.48" arrival="154.00" arrivalLane="-348676457_1" arrivalPos="217.87" arrivalSpeed="21.09" duration="55.00" routeLength="950.72" waitingTime="0.00" waitingCount="0" stopTime="0.00" timeLoss="10.63" rerouteNo="1" devices="tripinfo_veh117 routing_veh117" vType="veh_passenger" speedFactor="0.97" vaporized=""/>
    <tripinfo id="veh42" depart="35.00" departLane="1282213019.385_3" departPos="5.10" departSpeed="0.00" departDelay="0.43" arrival="155.00" arrivalLane="835709649_0" arrivalPos="233.66" arrivalSpeed="23.20" duration="120.00" routeLength="1236.83" waitingTime="43.00" waitingCount="1" stopTime="0.00" timeLoss="64.89" rerouteNo="1" devices="tripinfo_veh42 routing_veh42" vType="veh_passenger" speedFactor="1.06" vaporized=""/>
    <tripinfo id="veh95" depart="79.00" departLane="-831076606_1" departPos="5.10" departSpeed="26.25" departDelay="0.06" arrival="155.00" arrivalLane="491882469_1" arrivalPos="89.81" arrivalSpeed="21.78" duration="76.00" routeLength="1198.94" waitingTime="5.00" waitingCount="1" stopTime="0.00" timeLoss="20.50" rerouteNo="1" devices="tripinfo_veh95 routing_veh95" vType="veh_passenger" speedFactor="1.18" vaporized=""/>
    <tripinfo id="veh54" depart="46.00" departLane="491852284_0" departPos="5.10" departSpeed="0.00" departDelay="0.84" arrival="156.00" arrivalLane="-348676457_0" arrivalPos="217.87" arrivalSpeed="24.39" duration="110.00" routeLength="1070.46" waitingTime="40.00" waitingCount="1" stopTime="0.00" timeLoss="65.80" rerouteNo="1" devices="tripinfo_veh54 routing_veh54" vType="veh_passenger" speedFactor="1.20" vaporized=""/>
    <tripinfo id="veh134" depart="114.00" departLane="-1261910085.272_1" departPos="5.10" departSpeed="0.00" departDelay="0.89" arrival="156.00" arrivalLane="-491853013.43_1" arrivalPos="37.18" arrivalSpeed="18.14" duration="42.00" routeLength="529.85" waitingTime="3.00" waitingCount="1" stopTime="0.00" timeLoss="15.34" rerouteNo="1" devices="tripinfo_veh134 routing_veh134" vType="veh_passenger" speedFactor="0.99" vaporized=""/>
    <tripinfo id="veh52" depart="45.00" departLane="-1261910124_2" departPos="5.10" departSpeed="17.54" departDelay="0.43" arrival="162.00" arrivalLane="1282213039#1_0" arrivalPos="124.37" arrivalSpeed="28.31" duration="117.00" routeLength="1441.37" waitingTime="25.00" waitingCount="1" stopTime="0.00" timeLoss="41.11" rerouteNo="1" devices="tripinfo_veh52 routing_veh52" vType="veh_passenger" speedFactor="1.05" vaporized=""/>
    <tripinfo id="veh81" depart="71.00" departLane="-1281579932.229_0" departPos="5.10" departSpeed="0.00" departDelay="0.25" arrival="162.00" arrivalLane="1261910124_0" arrivalPos="270.51" arrivalSpeed="16.93" duration="91.00" routeLength="755.19" waitingTime="32.00" waitingCount="2" stopTime="0.00" timeLoss="53.91" rerouteNo="1" devices="tripinfo_veh81 routing_veh81" vType="veh_passenger" speedFactor="1.08" vaporized=""/>
    <tripinfo id="veh69" depart="61.00" departLane="491849325_1" departPos="5.10" departSpeed="23.67" departDelay="0.84" arrival="164.00" arrivalLane="491853013_1" arrivalPos="84.20" arrivalSpeed="21.34" duration="103.00" routeLength="1175.30" waitingTime="17.00" waitingCount="2" stopTime="0.00" timeLoss="55.69" rerouteNo="1" devices="tripinfo_veh69 routing_veh69" vType="veh_passenger" speedFactor="1.07" vaporized=""/>
    <tripinfo id="veh35" depart="37.00" departLane="-1261910124_2" departPos="5.10" departSpeed="18.15" departDelay="0.02" arrival="167.00" arrivalLane="1282213019_0" arrivalPos="363.97" arrivalSpeed="27.79" duration="130.00" routeLength="1578.17" waitingTime="35.00" waitingCount="1" stopTime="0.00" timeLoss="49.93" rerouteNo="1" devices="tripinfo_veh35 routing_veh35" vType="veh_passenger" speedFactor="1.09" vaporized=""/>
    <tripinfo id="veh17" depart="16.00" departLane="491849325_1" departPos="5.10" departSpeed="26.25" departDelay="0.41" arrival="168.00" arrivalLane="-1261910123.395_1" arrivalPos="14.67" arrivalSpeed="20.05" duration="152.00" routeLength="1841.03" waitingTime="53.00" waitingCount="2" stopTime="0.00" timeLoss="68.30" rerouteNo="1" devices="tripinfo_veh17 routing_veh17" vType="veh_passenger" speedFactor="0.95" vaporized=""/>
    <tripinfo id="veh26" depart="30.00" departLane="348676457_0" departPos="5.10" departSpeed="23.83" departDelay="0.22" arrival="168.00" arrivalLane="491855300_0" arrivalPos="79.17" arrivalSpeed="6.83" duration="138.00" routeLength="1412.91" waitingTime="44.00" waitingCount="2" stopTime="0.00" timeLoss="76.41" rerouteNo="1" devices="tripinfo_veh26 routing_veh26" vType="veh_passenger" speedFactor="1.07" vaporized=""/>
    <tripinfo id="veh14" depart="15.00" departLane="-835709649.130_2" departPos="5.10" departSpeed="0.00" departDelay="2.81" arrival="171.00" arrivalLane="1282213042_0" arrivalPos="165.04" arrivalSpeed="22.14" duration="156.00" routeLength="1077.33" waitingTime="64.00" waitingCount="2" stopTime="0.00" timeLoss="106.54" rerouteNo="1" devices="tripinfo_veh14 routing_veh14" vType="veh_passenger" speedFactor="1.00" vaporized=""/>
    <tripinfo id="veh19" depart="20.00" departLane="-1261910124_3" departPos="5.10" departSpeed="14.43" departDelay="0.81" arrival="172.00" arrivalLane="-491882138_0" arrivalPos="82.30" arrivalSpeed="11.57" duration="152.00" routeLength="1396.95" waitingTime="44.00" waitingCount="1" stopTime="0.00" timeLoss="59.21" rerouteNo="1" devices="tripinfo_veh19 routing_veh19" vType="veh_passenger" speedFactor="0.87" vaporized=""/>
    <tripinfo id="veh51" depart="50.00" departLane="830596755#1_0" departPos="5.10" departSpeed="0.00" departDelay="0.23" arrival="177.00" arrivalLane="835709649_1" arrivalPos="233.66" arrivalSpeed="22.84" duration="127.00" routeLength="1666.13" waitingTime="33.00" waitingCount="1" stopTime="0.00" timeLoss="59.63" rerouteNo="1" devices="tripinfo_veh51 routing_veh51" vType="veh_passenger" speedFactor="1.08" vaporized=""/>
    <tripinfo id="veh46" depart="42.00" departLane="491850744_0" departPos="5.10" departSpeed="0.00" departDelay="0.23" arrival="181.00" arrivalLane="1282213042_0" arrivalPos="165.04" arrivalSpeed="21.35" duration="139.00" routeLength="1836.18" waitingTime="14.00" waitingCount="1" stopTime="0.00" timeLoss="47.98" rerouteNo="1" devices="tripinfo_veh46 routing_veh46" vType="veh_passenger" speedFactor="0.97" vaporized=""/>
    <tripinfo id="veh39" depart="33.00" departLane="491849325_1" departPos="5.10" departSpeed="25.09" departDelay="0.83" arrival="184.00" arrivalLane="1282213042_0" arrivalPos="165.04" arrivalSpeed="20.83" duration="151.00" routeLength="1606.87" waitingTime="50.00" waitingCount="1" stopTime="0.00" timeLoss="80.35" rerouteNo="1" devices="tripinfo_veh39 routing_veh39" vType="veh_passenger" speedFactor="0.96" vaporized=""/>
    <tripinfo id="veh92" depart="81.00" departLane="-208463886_0" departPos="5.10" departSpeed="0.00" departDelay="0.46" arrival="184.00" arrivalLane="491882468_0" arrivalPos="57.30" arrivalSpeed="27.66" duration="103.00" routeLength="987.06" waitingTime="49.00" waitingCount="1" stopTime="0.00" timeLoss="67.81" rerouteNo="1" devices="tripinfo_veh92 routing_veh92" vType="veh_passenger" speedFactor="1.18" vaporized=""/>
    <tripinfo id="veh47" depart="40.00" departLane="491852285_1" departPos="5.10" departSpeed="0.00" departDelay="0.43" arrival="185.00" arrivalLane="1282213040-AddedOffRampEdge_0" arrivalPos="96.00" arrivalSpeed="27.71" duration="145.00" routeLength="1109.26" waitingTime="67.00" waitingCount="2" stopTime="0.00" timeLoss="89.98" rerouteNo="1" devices="tripinfo_veh47 routing_veh47" vType="veh_passenger" speedFactor="1.00" vaporized=""/>
    <tripinfo id="veh99" depart="83.00" departLane="-491855300_0" departPos="5.10" departSpeed="0.00" departDelay="0.86" arrival="185.00" arrivalLane="831086031_0" arrivalPos="455.40" arrivalSpeed="28.82" duration="102.00" routeLength="1349.92" waitingTime="25.00" waitingCount="1" stopTime="0.00" timeLoss="48.70" rerouteNo="1" devices="tripinfo_veh99 routing_veh99" vType="veh_passenger" speedFactor="1.10" vaporized=""/>
    <tripinfo id="veh23" depart="27.00" departLane="-1282213042_0" departPos="5.10" departSpeed="21.73" departDelay="0.61" arrival="187.00" arrivalLane="491882469_0" arrivalPos="89.81" arrivalSpeed="26.81" duration="160.00" routeLength="1638.72" waitingTime="69.00" waitingCount="2" stopTime="0.00" timeLoss="88.63" rerouteNo="1" devices="tripinfo_veh23 routing_veh23" vType="veh_passenger" speedFactor="0.98" vaporized=""/>
    <tripinfo id="veh103" depart="92.00" departLane="491847189_0" departPos="5.10" departSpeed="20.45" departDelay="0.67" arrival="187.00" arrivalLane="-1261910085_2" arrivalPos="255.12" arrivalSpeed="14.65" duration="95.00" routeLength="1185.74" waitingTime="16.00" waitingCount="1" stopTime="0.00" timeLoss="30.06" rerouteNo="1" devices="tripinfo_veh103 routing_veh103" vType="veh_passenger" speedFactor="0.92" vaporized=""/>
    <tripinfo id="veh27" depart="31.00" departLane="-491852285_1" departPos="5.10" departSpeed="0.00" departDelay="0.42" arrival="189.00" arrivalLane="-1261910085.272_3" arrivalPos="77.70" arrivalSpeed="16.67" duration="158.00" routeLength="1702.98" waitingTime="38.00" waitingCount="1" stopTime="0.00" timeLoss="59.33" rerouteNo="1" devices="tripinfo_veh27 routing_veh27" vType="veh_passenger" speedFactor="1.03" vaporized=""/>
    <tripinfo id="veh75" depart="73.00" departLane="828032853#1_0" departPos="5.10" departSpeed="0.00" departDelay="3.05" arrival="189.00" arrivalLane="-491852284_0" arrivalPos="72.44" arrivalSpeed="13.95" duration="116.00" routeLength="989.01" waitingTime="46.00" waitingCount="1" stopTime="0.00" timeLoss="65.25" rerouteNo="1" devices="tripinfo_veh75 routing_veh75" vType="veh_passenger" speedFactor="1.07" vaporized=""/>
    <tripinfo id="veh107" depart="92.00" departLane="-491882138_1" departPos="5.10" departSpeed="0.00" departDelay="0.47" arrival="189.00" arrivalLane="208463842_0" arrivalPos="225.17" arrivalSpeed="13.09" duration="97.00" routeLength="674.22" waitingTime="39.00" waitingCount="1" stopTime="0.00" timeLoss="49.11" rerouteNo="1" devices="tripinfo_veh107 routing_veh107" vType="veh_passenger" speedFactor="1.02" vaporized=""/>
    <tripinfo id="veh43" depart="38.00" departLane="830596755#1_0" departPos="5.10" departSpeed="0.00" departDelay="0.63" arrival="190.00" arrivalLane="1261910085_0" arrivalPos="284.34" arrivalSpeed="13.76" duration="152.00" routeLength="1691.17" waitingTime="37.00" waitingCount="1" stopTime="0.00" timeLoss="59.95" rerouteNo="1" devices="tripinfo_veh43 routing_veh43" vType="veh_passenger" speedFactor="0.86" vaporized=""/>
    <tripinfo id="veh74" depart="67.00" departLane="1282213043_0" departPos="5.10" departSpeed="0.00" departDelay="3.85" arrival="191.00" arrivalLane="-1261910123.395_1" arrivalPos="14.67" arrivalSpeed="15.45" duration="124.00" routeLength="1712.39" waitingTime="0.00" waitingCount="0" stopTime="0.00" timeLoss="28.10" rerouteNo="1" devices="tripinfo_veh74 routing_veh74" vType="veh_passenger" speedFactor="0.95" vaporized=""/>
    <tripinfo id="veh77" depart="72.00" departLane="-491855300_0" departPos="5.10" departSpeed="0.00" departDelay="0.45" arrival="191.00" arrivalLane="491882469_0" arrivalPos="89.81" arrivalSpeed="26.55" duration="119.00" routeLength="1531.39" waitingTime="31.00" waitingCount="1" stopTime="0.00" timeLoss="51.44" rerouteNo="1" devices="tripinfo_veh77 routing_veh77" vType="veh_passenger" speedFactor="0.99" vaporized=""/>
    <tripinfo id="veh64" depart="61.00" departLane="828032853#1.423_0" departPos="5.10" departSpeed="0.00" departDelay="0.84" arrival="194.00" arrivalLane="-1281579932.229_1" arrivalPos="54.34" arrivalSpeed="14.79" duration="133.00" routeLength="1484.51" waitingTime="10.00" waitingCount="2" stopTime="0.00" timeLoss="34.06" rerouteNo="1" devices="tripinfo_veh64 routing_veh64" vType="veh_passenger" speedFactor="0.90" vaporized=""/>
    <tripinfo id="veh176" depart="141.00" departLane="348676457_0" departPos="5.10" departSpeed="21.77" departDelay="0.31" arrival="194.00" arrivalLane="835709649_0" arrivalPos="233.66" arrivalSpeed="20.85" duration="53.00" routeLength="816.96" waitingTime="0.00" waitingCount="0" stopTime="0.00" timeLoss="8.02" rerouteNo="1" devices="tripinfo_veh176 routing_veh176" vType="veh_passenger" speedFactor="0.98" vaporized=""/>
    <tripinfo id="veh68" depart="59.00" departLane="1261910123_0" departPos="5.10" departSpeed="0.00" departDelay="2.64" arrival="197.00" arrivalLane="1282213039#1_0" arrivalPos="124.37" arrivalSpeed="30.10" duration="138.00" routeLength="1940.76" waitingTime="33.00" waitingCount="1" stopTime="0.00" timeLoss="64.87" rerouteNo="1" devices="tripinfo_veh68 routing_veh68" vType="veh_passenger" speedFactor="1.12" vaporized=""/>
    <tripinfo id="veh30" depart="31.00" departLane="830596755#1_0" departPos="5.10" departSpeed="0.00" departDelay="0.02" arrival="198.00" arrivalLane="1261910124_0" arrivalPos="270.51" arrivalSpeed="15.26" duration="167.00" routeLength="2008.51" waitingTime="37.00" waitingCount="1" stopTime="0.00" timeLoss="66.43" rerouteNo="1" devices="tripinfo_veh30 routing_veh30" vType="veh_passenger" speedFactor="0.94" vaporized=""/>
    <tripinfo id="veh154" depart="125.00" departLane="1261910085.305_0" departPos="5.10" departSpeed="0.00" departDelay="0.90" arrival="200.00" arrivalLane="1261910124_0" arrivalPos="270.51" arrivalSpeed="20.31" duration="75.00" routeLength="341.36" waitingTime="45.00" waitingCount="1" stopTime="0.00" timeLoss="57.89" rerouteNo="0" devices="tripinfo_veh154 routing_veh154" vType="veh_passenger" speedFactor="1.25" vaporized=""/>
    <tripinfo id="veh104" depart="93.00" departLane="491855300_0" departPos="5.10" departSpeed="0.00" departDelay="0.87" arrival="201.00" arrivalLane="1261910124_1" arrivalPos="270.51" arrivalSpeed="17.54" duration="108.00" routeLength="723.41" waitingTime="46.00" waitingCount="2" stopTime="0.00" timeLoss="67.12" rerouteNo="1" devices="tripinfo_veh104 routing_veh104" vType="veh_passenger" speedFactor="1.08" vaporized=""/>
    <tripinfo id="veh36" depart="37.00" departLane="835726113_0" departPos="5.10" departSpeed="0.00" departDelay="7.22" arrival="202.00" arrivalLane="1282213040-AddedOffRampEdge_3" arrivalPos="96.00" arrivalSpeed="26.41" duration="165.00" routeLength="2067.53" waitingTime="23.00" waitingCount="1" stopTime="0.00" timeLoss="55.25" rerouteNo="1" devices="tripinfo_veh36 routing_veh36" vType="veh_passenger" speedFactor="0.97" vaporized=""/>
    <tripinfo id="veh121" depart="103.00" departLane="491852285_0" departPos="5.10" departSpeed="0.00" departDelay="0.28" arrival="204.00" arrivalLane="831076606_1" arrivalPos="372.27" arrivalSpeed="24.92" duration="101.00" routeLength="1271.58" waitingTime="10.00" waitingCount="1" stopTime="0.00" timeLoss="42.32" rerouteNo="1" devices="tripinfo_veh121 routing_veh121" vType="veh_passenger" speedFactor="1.14" vaporized=""/>
    <tripinfo id="veh11" depart="13.00" departLane="828032853#1_0" departPos="5.10" departSpeed="0.00" departDelay="0.21" arrival="206.00" arrivalLane="208463842_1" arrivalPos="225.17" arrivalSpeed="14.03" duration="193.00" routeLength="1783.50" waitingTime="60.00" waitingCount="3" stopTime="0.00" timeLoss="103.89" rerouteNo="1" devices="tripinfo_veh11 routing_veh11" vType="veh_passenger" speedFactor="1.09" vaporized=""/>
    <tripinfo id="veh56" depart="48.00" departLane="-491855300_1" departPos="5.10" departSpeed="0.00" departDelay="0.24" arrival="206.00" arrivalLane="831076606_0" arrivalPos="372.27" arrivalSpeed="18.53" duration="158.00" routeLength="1446.56" waitingTime="45.00" waitingCount="1" stopTime="0.00" timeLoss="76.56" rerouteNo="1" devices="tripinfo_veh56 routing_veh56" vType="veh_passenger" speedFactor="0.83" vaporized=""/>
    <tripinfo id="veh61" depart="50.00" departLane="-835709649_1" departPos="5.10" departSpeed="23.11" departDelay="0.24" arrival="209.00" arrivalLane="208463842_1" arrivalPos="225.17" arrivalSpeed="14.01" duration="159.00" routeLength="1566.91" waitingTime="43.00" waitingCount="2" stopTime="0.00" timeLoss="81.61" rerouteNo="1" devices="tripinfo_veh61 routing_veh61" vType="veh_passenger" speedFactor="1.04" vaporized=""/>